created by fftool

54 atoms
8 bonds
4 angles
0 dihedrals
4 atom types
3 bond types
3 angle types
4 dihedral types
0.000000 30.000000 xlo xhi
0.000000 30.000000 ylo yhi
-30.000000 60.000000 zlo zhi

Masses

   1    1.008  # Hw
   2   15.999  # Ow
   3   12.011  # CA
   4   11.008  # HA

Bond Coeffs

   1   517.630258     1.000000  # Ow-Hw
   2   469.000956     1.400000  # CA-CA
   3   367.005258     1.080000  # CA-HA

Angle Coeffs

   1    37.950526   109.470000  # Hw-Ow-Hw
   2    35.002390   120.000000  # CA-CA-HA
   3    63.001912   120.000000  # CA-CA-CA

Dihedral Coeffs

   1     0.000000     7.250000     0.000000     0.000000  # CA-CA-CA-HA
   2     0.000000     7.250000     0.000000     0.000000  # CA-CA-CA-CA
   3     0.000000     7.250000     0.000000     0.000000  # HA-CA-CA-HA
   4     0.000000     2.200000     0.000000     0.000000  # CA-CA-CA-HA

Atoms

      1       1    1   0.423800   15.806   13.943    6.375  # Hw SPCE
      2       1    2  -0.847600   15.137   13.201    6.424  # Ow SPCE
      3       1    1   0.423800   14.496   13.280    5.661  # Hw SPCE
      4       2    1   0.423800   12.246    2.774   18.466  # Hw SPCE
      5       2    2  -0.847600   11.749    3.638   18.381  # Ow SPCE
      6       2    1   0.423800   10.772    3.452   18.279  # Hw SPCE
      7       3    1   0.423800   12.121   18.156   10.161  # Hw SPCE
      8       3    2  -0.847600   12.659   18.952    9.882  # Ow SPCE
      9       3    1   0.423800   12.723   19.595   10.645  # Hw SPCE
     10       4    1   0.423800   16.119    6.143   13.137  # Hw SPCE
     11       4    2  -0.847600   15.293    6.395   12.632  # Ow SPCE
     12       4    1   0.423800   14.758    5.574   12.437  # Hw SPCE
     13       5    3   0          15.806   13.943    6.375  # CA benzene
     14       5    3   0          15.137   13.201    6.424  # CA benzene
     15       5    3   0          14.496   13.280    5.661  # CA benzene
     16       5    3   0          12.246    2.774   18.466  # CA benzene
     17       5    3   0          11.749    3.638   18.381  # CA benzene
     18       5    3   0          10.772    3.452   18.279  # CA benzene
     19       5    3   0          12.121   18.156   10.161  # CA benzene
     20       5    3   0          12.659   18.952    9.882  # CA benzene
     21       5    3   0          12.723   19.595   10.645  # CA benzene
     22       5    3   0          16.119    6.143   13.137  # CA benzene
     23       5    3   0          15.293    6.395   12.632  # CA benzene
     24       5    3   0          14.758    5.574   12.437  # CA benzene
     25       6    3   0          15.806   13.943    6.375 # CA benzene
     26       6    3   0          15.137   13.201    6.424 # CA benzene
     27       6    3   0          14.496   13.280    5.661 # CA benzene
     28       6    3   0          12.246    2.774   18.466 # CA benzene
     29       6    3   0          11.749    3.638   18.381 # CA benzene
     30       6    3   0          10.772    3.452   18.279 # CA benzene
     31       6    3   0          12.121   18.156   10.161 # CA benzene
     32       6    3   0          12.659   18.952    9.882 # CA benzene
     33       6    3   0          12.723   19.595   10.645 # CA benzene
     34       6    3   0          16.119    6.143   13.137 # CA benzene
     35       6    3   0          15.293    6.395   12.632 # CA benzene
     36       6    3   0          14.758    5.574   12.437 # CA benzene
     37       7    4   0          5       5        0  # HA benzene
     38       7    4   0          5       15        0  # HA benzene
     39       7    4   0          5       25        0  # HA benzene
     40       7    4   0          15       5        0  # HA benzene
     41       7    4   0          15       15        0  # HA benzene
     42       7    4   0          15       25        0  # HA benzene
     43       7    4   0          25       5        0  # HA benzene
     44       7    4   0          25       15        0  # HA benzene
     45       7    4   0          25       25        0  # HA benzene
     46       8    4   0          5       5       30  # HA benzene
     47       8    4   0          5       15      30 # HA benzene
     48       8    4   0          5       25      30 # HA benzene
     49       8    4   0          15       5      30 # HA benzene
     50       8    4   0          15       15     30  # HA benzene
     51       8    4   0          15       25     30  # HA benzene
     52       8    4   0          25       5      30 # HA benzene
     53       8    4   0          25       15     30  # HA benzene
     54       8    4   0          25       25     30  # HA benzene

Bonds

      1    1       2       1  # Ow-Hw
      2    1       3       2  # Ow-Hw
      3    1       5       4  # Ow-Hw
      4    1       6       5  # Ow-Hw
      5    1       8       7  # Ow-Hw
      6    1       9       8  # Ow-Hw
      7    1      11      10  # Ow-Hw
      8    1      12      11  # Ow-Hw

Angles

      1    1       1       2       3  # Hw-Ow-Hw
      2    1       4       5       6  # Hw-Ow-Hw
      3    1       7       8       9  # Hw-Ow-Hw
      4    1      10      11      12  # Hw-Ow-Hw
