created by fftool

7030 atoms
6840 bonds
6840 angles
8740 dihedrals
20 atom types
18 bond types
14 angle types
20 dihedral types
0.000000 30.000000 xlo xhi
0.000000 30.000000 ylo yhi
0.000000 60.000000 zlo zhi

Masses

   1   13.607  # NA DC
   2   11.611  # CR DC
   3   11.611  # CW DC
   4   11.611  # C1 DC
   5    1.008  # HCR
   6    1.008  # HCW
   7    1.008  # H1
   8   11.611  # CE DC
   9    1.008  # HC
  10   13.600  # N3A DC
  11   11.611  # CZA DC
  12   13.601  # NZA DC
  13    0.400  # NA DP
  14    0.400  # CR DP
  15    0.400  # CW DP
  16    0.400  # C1 DP
  17    0.400  # CE DP
  18    0.400  # N3A DP
  19    0.400  # CZA DP
  20    0.400  # NZA DP

Bond Coeffs

   1   477.055449     1.315000  # CR-NA
   2   427.103250     1.378000  # CW-NA
   3   520.076482     1.341000  # CW-CW
   4   336.998088     1.466000  # NA-CT
   5   339.985660     1.080000  # CR-HA
   6   339.985660     1.080000  # CW-HA
   7   339.985660     1.090000  # HC-CT
   8   267.925430     1.529000  # CT-CT
   9   502.629063     1.310000  # N3-CZ
  10   650.000000     1.157000  # CZ-NZ
  11   500.000000     0.000000  # NA DC-DP
  12   500.000000     0.000000  # CR DC-DP
  13   500.000000     0.000000  # CW DC-DP
  14   500.000000     0.000000  # C1 DC-DP
  15   500.000000     0.000000  # CE DC-DP
  16   500.000000     0.000000  # N3A DC-DP
  17   500.000000     0.000000  # CZA DC-DP
  18   500.000000     0.000000  # NZA DC-DP

Angle Coeffs

   1    70.004780   126.400000  # CR-NA-CT
   2    70.004780   108.000000  # CW-NA-CR
   3    70.004780   125.600000  # CW-NA-CT
   4    70.004780   109.800000  # NA-CR-NA
   5    35.002390   125.100000  # NA-CR-HA
   6    70.004780   107.100000  # NA-CW-CW
   7    35.002390   122.000000  # NA-CW-HA
   8    35.002390   130.900000  # CW-CW-HA
   9    37.500000   110.700000  # NA-CT-HC
  10    32.994742   107.800000  # HC-CT-HC
  11    58.353250   112.700000  # NA-CT-CT
  12    37.500000   110.700000  # CT-CT-HC
  13    43.260038   118.500000  # CZ-N3-CZ
  14    50.788719   175.200000  # N3-CZ-NZ

Dihedral Coeffs

   1     0.000000     4.651052     0.000000     0.000000  # CT-NA-CR-NA
   2     0.000000     4.651052     0.000000     0.000000  # CW-NA-CR-NA
   3     0.000000     4.651052     0.000000     0.000000  # CT-NA-CR-HA
   4     0.000000     4.651052     0.000000     0.000000  # CW-NA-CR-HA
   5     0.000000     3.000000     0.000000     0.000000  # CR-NA-CW-CW
   6     0.000000     3.000000     0.000000     0.000000  # CT-NA-CW-CW
   7     0.000000     3.000000     0.000000     0.000000  # CR-NA-CW-HA
   8     0.000000     3.000000     0.000000     0.000000  # CT-NA-CW-HA
   9     0.000000    10.750478     0.000000     0.000000  # NA-CW-CW-HA
  10     0.000000    10.750478     0.000000     0.000000  # HA-CW-CW-HA
  11     0.000000    10.750478     0.000000     0.000000  # NA-CW-CW-NA
  12     0.000000     0.000000     0.000000     0.000000  # CR-NA-CT-HC
  13     0.000000     0.000000     0.124044     0.000000  # CW-NA-CT-HC
  14    -1.259345     0.000000     0.000000     0.000000  # CR-NA-CT-CT
  15    -1.709728     1.459465     0.189747     0.000000  # CW-NA-CT-CT
  16     0.000000     0.000000     0.087715     0.000000  # NA-CT-CT-HC
  17     0.000000     0.000000     0.300000     0.000000  # HC-CT-CT-HC
  18     0.000000     2.000000     0.000000     0.000000  # CR-CW-NA-CT
  19     0.000000     2.200000     0.000000     0.000000  # NA-NA-CR-HA
  20     0.000000     2.200000     0.000000     0.000000  # NA-CW-CW-HA

Atoms

      1       1    1   2.057313   26.960   19.369   12.509  # NA c2c1im+ DC
      2       1   13  -1.907313   26.924   19.404   12.535  # NA c2c1im+ DP
      3       1    2   1.976039   25.794   18.771   12.403  # CR c2c1im+ DC
      4       1   14  -2.086039   25.769   18.771   12.398  # CR c2c1im+ DP
      5       1    1   2.057313   25.968   17.476   12.258  # NA c2c1im+ DC
      6       1   13  -1.907313   25.983   17.505   12.217  # NA c2c1im+ DP
      7       1    3   1.956039   27.323   17.225   12.270  # CW c2c1im+ DC
      8       1   15  -2.086039   27.276   17.259   12.263  # CW c2c1im+ DP
      9       1    3   1.956039   27.941   18.405   12.426  # CW c2c1im+ DC
     10       1   15  -2.086039   27.968   18.355   12.421  # CW c2c1im+ DP
     11       1    4   2.274943   27.189   20.806   12.683  # C1 c2c1im+ DC
     12       1   16  -2.444943   27.211   20.779   12.727  # C1 c2c1im+ DP
     13       1    5   0.210000   24.836   19.269   12.432  # HCR c2c1im+
     14       1    4   2.067196   24.913   16.469   12.109  # C1 c2c1im+ DC
     15       1   16  -2.237196   24.953   16.422   12.061  # C1 c2c1im+ DP
     16       1    6   0.210000   27.798   16.260   12.172  # HCW c2c1im+
     17       1    6   0.210000   29.008   18.569   12.478  # HCW c2c1im+
     18       1    7   0.130000   27.780   21.185   11.849  # H1 c2c1im+
     19       1    7   0.130000   26.231   21.326   12.714  # H1 c2c1im+
     20       1    7   0.130000   27.726   20.979   13.616  # H1 c2c1im+
     21       1    8   2.394943   23.554   17.149   12.146  # CE c2c1im+ DC
     22       1   17  -2.444943   23.558   17.193   12.134  # CE c2c1im+ DP
     23       1    7   0.130000   25.034   15.954   11.156  # H1 c2c1im+
     24       1    7   0.130000   24.981   15.748   12.923  # H1 c2c1im+
     25       1    9   0.060000   22.770   16.401   12.035  # HC c2c1im+
     26       1    9   0.060000   23.432   17.665   13.099  # HC c2c1im+
     27       1    9   0.060000   23.485   17.870   11.332  # HC c2c1im+
     28       2    1   2.057313   19.078   18.832   26.741  # NA c2c1im+ DC
     29       2   13  -1.907313   19.050   18.824   26.694  # NA c2c1im+ DP
     30       2    2   1.976039   18.764   18.696   25.472  # CR c2c1im+ DC
     31       2   14  -2.086039   18.736   18.690   25.471  # CR c2c1im+ DP
     32       2    1   2.057313   17.850   19.583   25.142  # NA c2c1im+ DC
     33       2   13  -1.907313   17.823   19.556   25.114  # NA c2c1im+ DP
     34       2    3   1.956039   17.559   20.331   26.262  # CW c2c1im+ DC
     35       2   15  -2.086039   17.555   20.310   26.215  # CW c2c1im+ DP
     36       2    3   1.956039   18.325   19.863   27.259  # CW c2c1im+ DC
     37       2   15  -2.086039   18.359   19.868   27.273  # CW c2c1im+ DP
     38       2    4   2.274943   20.057   18.032   27.485  # C1 c2c1im+ DC
     39       2   16  -2.444943   20.025   18.082   27.521  # C1 c2c1im+ DP
     40       2    5   0.210000   19.192   17.967   24.800  # HCR c2c1im+
     41       2    4   2.067196   17.241   19.752   23.819  # C1 c2c1im+ DC
     42       2   16  -2.237196   17.204   19.735   23.841  # C1 c2c1im+ DP
     43       2    6   0.210000   16.848   21.142   26.326  # HCW c2c1im+
     44       2    6   0.210000   18.347   20.226   28.276  # HCW c2c1im+
     45       2    7   0.130000   19.560   17.528   28.314  # H1 c2c1im+
     46       2    7   0.130000   20.500   17.290   26.822  # H1 c2c1im+
     47       2    7   0.130000   20.839   18.684   27.874  # H1 c2c1im+
     48       2    8   2.394943   17.830   18.733   22.856  # CE c2c1im+ DC
     49       2   17  -2.444943   17.851   18.777   22.849  # CE c2c1im+ DP
     50       2    7   0.130000   16.164   19.602   23.892  # H1 c2c1im+
     51       2    7   0.130000   17.444   20.758   23.452  # H1 c2c1im+
     52       2    9   0.060000   17.378   18.859   21.873  # HC c2c1im+
     53       2    9   0.060000   18.907   18.883   22.782  # HC c2c1im+
     54       2    9   0.060000   17.628   17.727   23.223  # HC c2c1im+
     55       3    1   2.057313    3.740   17.814   32.552  # NA c2c1im+ DC
     56       3   13  -1.907313    3.773   17.831   32.532  # NA c2c1im+ DP
     57       3    2   1.976039    4.927   17.926   31.996  # CR c2c1im+ DC
     58       3   14  -2.086039    4.935   17.964   32.031  # CR c2c1im+ DP
     59       3    1   2.057313    5.829   17.338   32.751  # NA c2c1im+ DC
     60       3   13  -1.907313    5.830   17.347   32.704  # NA c2c1im+ DP
     61       3    3   1.956039    5.188   16.818   33.855  # CW c2c1im+ DC
     62       3   15  -2.086039    5.163   16.848   33.846  # CW c2c1im+ DP
     63       3    3   1.956039    3.886   17.115   33.730  # CW c2c1im+ DC
     64       3   15  -2.086039    3.854   17.120   33.751  # CW c2c1im+ DP
     65       3    4   2.274943    2.478   18.336   32.020  # C1 c2c1im+ DC
     66       3   16  -2.444943    2.495   18.323   32.014  # C1 c2c1im+ DP
     67       3    5   0.210000    5.130   18.425   31.061  # HCR c2c1im+
     68       3    4   2.067196    7.266   17.247   32.475  # C1 c2c1im+ DC
     69       3   16  -2.237196    7.267   17.275   32.477  # C1 c2c1im+ DP
     70       3    6   0.210000    5.648   16.275   34.667  # HCW c2c1im+
     71       3    6   0.210000    3.100   16.855   34.424  # HCW c2c1im+
     72       3    7   0.130000    2.047   19.040   32.732  # H1 c2c1im+
     73       3    7   0.130000    2.664   18.844   31.074  # H1 c2c1im+
     74       3    7   0.130000    1.782   17.512   31.859  # H1 c2c1im+
     75       3    8   2.394943    7.575   17.945   31.160  # CE c2c1im+ DC
     76       3   17  -2.444943    7.564   17.944   31.113  # CE c2c1im+ DP
     77       3    7   0.130000    7.822   17.727   33.280  # H1 c2c1im+
     78       3    7   0.130000    7.558   16.199   32.406  # H1 c2c1im+
     79       3    9   0.060000    8.643   17.878   30.954  # HC c2c1im+
     80       3    9   0.060000    7.019   17.466   30.354  # HC c2c1im+
     81       3    9   0.060000    7.284   18.994   31.227  # HC c2c1im+
     82       4    1   2.057313   17.221   10.031   52.343  # NA c2c1im+ DC
     83       4   13  -1.907313   17.175   10.051   52.391  # NA c2c1im+ DP
     84       4    2   1.976039   17.099    9.357   51.220  # CR c2c1im+ DC
     85       4   14  -2.086039   17.108    9.347   51.187  # CR c2c1im+ DP
     86       4    1   2.057313   18.289    9.100   50.723  # NA c2c1im+ DC
     87       4   13  -1.907313   18.289    9.148   50.750  # NA c2c1im+ DP
     88       4    3   1.956039   19.231    9.637   51.573  # CW c2c1im+ DC
     89       4   15  -2.086039   19.234    9.673   51.547  # CW c2c1im+ DP
     90       4    3   1.956039   18.565   10.217   52.583  # CW c2c1im+ DC
     91       4   15  -2.086039   18.566   10.263   52.591  # CW c2c1im+ DP
     92       4    4   2.274943   16.128   10.504   53.197  # C1 c2c1im+ DC
     93       4   16  -2.444943   16.124   10.481   53.202  # C1 c2c1im+ DP
     94       4    5   0.210000   16.162    9.060   50.773  # HCR c2c1im+
     95       4    4   2.067196   18.573    8.370   49.484  # C1 c2c1im+ DC
     96       4   16  -2.237196   18.618    8.321   49.512  # C1 c2c1im+ DP
     97       4    6   0.210000   20.303    9.599   51.450  # HCW c2c1im+
     98       4    6   0.210000   19.000   10.734   53.426  # HCW c2c1im+
     99       4    7   0.130000   16.173   11.590   53.278  # H1 c2c1im+
    100       4    7   0.130000   15.172   10.213   52.760  # H1 c2c1im+
    101       4    7   0.130000   16.223   10.062   54.189  # H1 c2c1im+
    102       4    8   2.394943   17.266    7.942   48.836  # CE c2c1im+ DC
    103       4   17  -2.444943   17.298    7.981   48.860  # CE c2c1im+ DP
    104       4    7   0.130000   19.122    9.016   48.799  # H1 c2c1im+
    105       4    7   0.130000   19.172    7.488   49.710  # H1 c2c1im+
    106       4    9   0.060000   17.477    7.400   47.915  # HC c2c1im+
    107       4    9   0.060000   16.716    7.296   49.520  # HC c2c1im+
    108       4    9   0.060000   16.666    8.824   48.609  # HC c2c1im+
    109       5    1   2.057313    7.835   25.682   49.541  # NA c2c1im+ DC
    110       5   13  -1.907313    7.866   25.684   49.547  # NA c2c1im+ DP
    111       5    2   1.976039    8.687   26.657   49.311  # CR c2c1im+ DC
    112       5   14  -2.086039    8.680   26.613   49.348  # CR c2c1im+ DP
    113       5    1   2.057313    9.904   26.170   49.203  # NA c2c1im+ DC
    114       5   13  -1.907313    9.911   26.140   49.204  # NA c2c1im+ DP
    115       5    3   1.956039    9.832   24.805   49.373  # CW c2c1im+ DC
    116       5   15  -2.086039    9.831   24.790   49.358  # CW c2c1im+ DP
    117       5    3   1.956039    8.543   24.500   49.583  # CW c2c1im+ DC
    118       5   15  -2.086039    8.547   24.513   49.595  # CW c2c1im+ DP
    119       5    4   2.274943    6.387   25.816   49.721  # C1 c2c1im+ DC
    120       5   16  -2.444943    6.383   25.769   49.694  # C1 c2c1im+ DP
    121       5    5   0.210000    8.426   27.702   49.224  # HCR c2c1im+
    122       5    4   2.067196   11.126   26.938   48.948  # C1 c2c1im+ DC
    123       5   16  -2.237196   11.094   26.946   48.984  # C1 c2c1im+ DP
    124       5    6   0.210000   10.659   24.110   49.342  # HCW c2c1im+
    125       5    6   0.210000    8.136   23.515   49.754  # HCW c2c1im+
    126       5    7   0.130000    6.107   25.444   50.707  # H1 c2c1im+
    127       5    7   0.130000    6.105   26.866   49.636  # H1 c2c1im+
    128       5    7   0.130000    5.870   25.239   48.955  # H1 c2c1im+
    129       5    8   2.394943   10.782   28.413   48.821  # CE c2c1im+ DC
    130       5   17  -2.444943   10.812   28.443   48.853  # CE c2c1im+ DP
    131       5    7   0.130000   11.824   26.797   49.774  # H1 c2c1im+
    132       5    7   0.130000   11.586   26.592   48.022  # H1 c2c1im+
    133       5    9   0.060000   11.691   28.983   48.631  # HC c2c1im+
    134       5    9   0.060000   10.086   28.555   47.995  # HC c2c1im+
    135       5    9   0.060000   10.323   28.760   49.747  # HC c2c1im+
    136       6    1   2.057313    9.005    9.608   36.823  # NA c2c1im+ DC
    137       6   13  -1.907313    8.980    9.642   36.841  # NA c2c1im+ DP
    138       6    2   1.976039    8.469   10.669   36.261  # CR c2c1im+ DC
    139       6   14  -2.086039    8.427   10.621   36.212  # CR c2c1im+ DP
    140       6    1   2.057313    7.158   10.565   36.271  # NA c2c1im+ DC
    141       6   13  -1.907313    7.184   10.540   36.232  # NA c2c1im+ DP
    142       6    3   1.956039    6.831    9.370   36.874  # CW c2c1im+ DC
    143       6   15  -2.086039    6.843    9.355   36.831  # CW c2c1im+ DP
    144       6    3   1.956039    7.981    8.774   37.218  # CW c2c1im+ DC
    145       6   15  -2.086039    7.947    8.776   37.185  # CW c2c1im+ DP
    146       6    4   2.274943   10.436    9.348   37.004  # C1 c2c1im+ DC
    147       6   16  -2.444943   10.413    9.369   36.999  # C1 c2c1im+ DP
    148       6    5   0.210000    9.023   11.501   35.852  # HCR c2c1im+
    149       6    4   2.067196    6.206   11.544   35.738  # C1 c2c1im+ DC
    150       6   16  -2.237196    6.188   11.541   35.690  # C1 c2c1im+ DP
    151       6    6   0.210000    5.835    8.986   37.039  # HCW c2c1im+
    152       6    6   0.210000    8.087    7.819   37.712  # HCW c2c1im+
    153       6    7   0.130000   10.707    8.429   36.484  # H1 c2c1im+
    154       6    7   0.130000   11.011   10.179   36.596  # H1 c2c1im+
    155       6    7   0.130000   10.655    9.241   38.066  # H1 c2c1im+
    156       6    8   2.394943    6.964   12.725   35.156  # CE c2c1im+ DC
    157       6   17  -2.444943    6.953   12.717   35.125  # CE c2c1im+ DP
    158       6    7   0.130000    5.605   11.078   34.957  # H1 c2c1im+
    159       6    7   0.130000    5.553   11.890   36.539  # H1 c2c1im+
    160       6    9   0.060000    6.256   13.453   34.759  # HC c2c1im+
    161       6    9   0.060000    7.565   13.192   35.937  # HC c2c1im+
    162       6    9   0.060000    7.617   12.380   34.354  # HC c2c1im+
    163       7    1   2.057313   13.180   11.530   44.795  # NA c2c1im+ DC
    164       7   13  -1.907313   13.141   11.570   44.796  # NA c2c1im+ DP
    165       7    2   1.976039   12.515   10.503   44.312  # CR c2c1im+ DC
    166       7   14  -2.086039   12.486   10.514   44.344  # CR c2c1im+ DP
    167       7    1   2.057313   11.315   10.888   43.934  # NA c2c1im+ DC
    168       7   13  -1.907313   11.268   10.840   43.899  # NA c2c1im+ DP
    169       7    3   1.956039   11.202   12.238   44.188  # CW c2c1im+ DC
    170       7   15  -2.086039   11.224   12.204   44.208  # CW c2c1im+ DP
    171       7    3   1.956039   12.364   12.638   44.724  # CW c2c1im+ DC
    172       7   15  -2.086039   12.382   12.642   44.696  # CW c2c1im+ DP
    173       7    4   2.274943   14.550   11.510   45.319  # C1 c2c1im+ DC
    174       7   16  -2.444943   14.597   11.540   45.320  # C1 c2c1im+ DP
    175       7    5   0.210000   12.896    9.496   44.237  # HCR c2c1im+
    176       7    4   2.067196   10.276   10.038   43.346  # C1 c2c1im+ DC
    177       7   16  -2.237196   10.248   10.053   43.335  # C1 c2c1im+ DP
    178       7    6   0.210000   10.339   12.858   43.991  # HCW c2c1im+
    179       7    6   0.210000   12.614   13.640   45.041  # HCW c2c1im+
    180       7    7   0.130000   14.545   11.829   46.361  # H1 c2c1im+
    181       7    7   0.130000   14.951   10.499   45.251  # H1 c2c1im+
    182       7    7   0.130000   15.172   12.188   44.734  # H1 c2c1im+
    183       7    8   2.394943   10.792    8.613   43.231  # CE c2c1im+ DC
    184       7   17  -2.444943   10.799    8.595   43.244  # CE c2c1im+ DP
    185       7    7   0.130000    9.391   10.054   43.981  # H1 c2c1im+
    186       7    7   0.130000   10.018   10.412   42.355  # H1 c2c1im+
    187       7    9   0.060000   10.019    7.981   42.794  # HC c2c1im+
    188       7    9   0.060000   11.677    8.596   42.595  # HC c2c1im+
    189       7    9   0.060000   11.049    8.238   44.221  # HC c2c1im+
    190       8    1   2.057313   12.958   11.162   19.388  # NA c2c1im+ DC
    191       8   13  -1.907313   12.914   11.142   19.435  # NA c2c1im+ DP
    192       8    2   1.976039   12.443   10.200   18.654  # CR c2c1im+ DC
    193       8   14  -2.086039   12.480   10.181   18.690  # CR c2c1im+ DP
    194       8    1   2.057313   11.146   10.129   18.859  # NA c2c1im+ DC
    195       8   13  -1.907313   11.127   10.173   18.883  # NA c2c1im+ DP
    196       8    3   1.956039   10.806   11.099   19.776  # CW c2c1im+ DC
    197       8   15  -2.086039   10.797   11.074   19.727  # CW c2c1im+ DP
    198       8    3   1.956039   11.935   11.743   20.106  # CW c2c1im+ DC
    199       8   15  -2.086039   11.973   11.697   20.138  # CW c2c1im+ DP
    200       8    4   2.274943   14.369   11.556   19.441  # C1 c2c1im+ DC
    201       8   16  -2.444943   14.415   11.563   19.409  # C1 c2c1im+ DP
    202       8    5   0.210000   13.002    9.564   17.983  # HCR c2c1im+
    203       8    4   2.067196   10.218    9.186   18.227  # C1 c2c1im+ DC
    204       8   16  -2.237196   10.255    9.234   18.247  # C1 c2c1im+ DP
    205       8    6   0.210000    9.816   11.303   20.157  # HCW c2c1im+
    206       8    6   0.210000   12.026   12.563   20.803  # HCW c2c1im+
    207       8    7   0.130000   14.740   11.440   20.460  # H1 c2c1im+
    208       8    7   0.130000   14.949   10.923   18.770  # H1 c2c1im+
    209       8    7   0.130000   14.468   12.597   19.135  # H1 c2c1im+
    210       8    8   2.394943   10.984    8.280   17.277  # CE c2c1im+ DC
    211       8   17  -2.444943   10.985    8.267   17.262  # CE c2c1im+ DP
    212       8    7   0.130000    9.734    8.582   18.994  # H1 c2c1im+
    213       8    7   0.130000    9.461    9.739   17.669  # H1 c2c1im+
    214       8    9   0.060000   10.294    7.579   16.807  # HC c2c1im+
    215       8    9   0.060000   11.468    8.883   16.509  # HC c2c1im+
    216       8    9   0.060000   11.740    7.726   17.834  # HC c2c1im+
    217       9    1   2.057313   10.069    8.138   46.913  # NA c2c1im+ DC
    218       9   13  -1.907313   10.040    8.155   46.906  # NA c2c1im+ DP
    219       9    2   1.976039    9.979    7.103   46.106  # CR c2c1im+ DC
    220       9   14  -2.086039    9.949    7.063   46.123  # CR c2c1im+ DP
    221       9    1   2.057313   11.141    6.489   46.038  # NA c2c1im+ DC
    222       9   13  -1.907313   11.120    6.489   46.021  # NA c2c1im+ DP
    223       9    3   1.956039   12.028    7.167   46.846  # CW c2c1im+ DC
    224       9   15  -2.086039   12.065    7.207   46.798  # CW c2c1im+ DP
    225       9    3   1.956039   11.360    8.194   47.391  # CW c2c1im+ DC
    226       9   15  -2.086039   11.330    8.177   47.440  # CW c2c1im+ DP
    227       9    4   2.274943    8.992    9.073   47.251  # C1 c2c1im+ DC
    228       9   16  -2.444943    9.020    9.057   47.222  # C1 c2c1im+ DP
    229       9    5   0.210000    9.086    6.802   45.579  # HCR c2c1im+
    230       9    4   2.067196   11.446    5.295   45.245  # C1 c2c1im+ DC
    231       9   16  -2.237196   11.463    5.328   45.289  # C1 c2c1im+ DP
    232       9    6   0.210000   13.066    6.917   47.009  # HCW c2c1im+
    233       9    6   0.210000   11.759    8.928   48.076  # HCW c2c1im+
    234       9    7   0.130000    9.279   10.081   46.952  # H1 c2c1im+
    235       9    7   0.130000    8.081    8.784   46.726  # H1 c2c1im+
    236       9    7   0.130000    8.815    9.051   48.326  # H1 c2c1im+
    237       9    8   2.394943   10.201    4.853   44.494  # CE c2c1im+ DC
    238       9   17  -2.444943   10.185    4.891   44.512  # CE c2c1im+ DP
    239       9    7   0.130000   12.238    5.524   44.533  # H1 c2c1im+
    240       9    7   0.130000   11.774    4.493   45.907  # H1 c2c1im+
    241       9    9   0.060000   10.428    3.965   43.904  # HC c2c1im+
    242       9    9   0.060000    9.408    4.623   45.206  # HC c2c1im+
    243       9    9   0.060000    9.872    5.654   43.831  # HC c2c1im+
    244      10    1   2.057313   15.137   16.756   51.366  # NA c2c1im+ DC
    245      10   13  -1.907313   15.135   16.805   51.340  # NA c2c1im+ DP
    246      10    2   1.976039   14.069   15.988   51.346  # CR c2c1im+ DC
    247      10   14  -2.086039   14.092   15.947   51.313  # CR c2c1im+ DP
    248      10    1   2.057313   13.022   16.691   50.974  # NA c2c1im+ DC
    249      10   13  -1.907313   13.063   16.662   51.000  # NA c2c1im+ DP
    250      10    3   1.956039   13.437   17.984   50.742  # CW c2c1im+ DC
    251      10   15  -2.086039   13.447   18.018   50.728  # CW c2c1im+ DP
    252      10    3   1.956039   14.755   18.025   50.986  # CW c2c1im+ DC
    253      10   15  -2.086039   14.739   18.004   51.023  # CW c2c1im+ DP
    254      10    4   2.274943   16.497   16.346   51.728  # C1 c2c1im+ DC
    255      10   16  -2.444943   16.507   16.392   51.767  # C1 c2c1im+ DP
    256      10    5   0.210000   14.055   14.938   51.597  # HCR c2c1im+
    257      10    4   2.067196   11.650   16.194   50.830  # C1 c2c1im+ DC
    258      10   16  -2.237196   11.614   16.199   50.790  # C1 c2c1im+ DP
    259      10    6   0.210000   12.818   18.809   50.422  # HCW c2c1im+
    260      10    6   0.210000   15.397   18.889   50.901  # HCW c2c1im+
    261      10    7   0.130000   16.837   16.929   52.584  # H1 c2c1im+
    262      10    7   0.130000   16.501   15.287   51.985  # H1 c2c1im+
    263      10    7   0.130000   17.165   16.518   50.884  # H1 c2c1im+
    264      10    8   2.394943   11.607   14.715   51.179  # CE c2c1im+ DC
    265      10   17  -2.444943   11.561   14.673   51.215  # CE c2c1im+ DP
    266      10    7   0.130000   10.991   16.745   51.501  # H1 c2c1im+
    267      10    7   0.130000   11.319   16.334   49.800  # H1 c2c1im+
    268      10    9   0.060000   10.587   14.346   51.071  # HC c2c1im+
    269      10    9   0.060000   12.265   14.164   50.508  # HC c2c1im+
    270      10    9   0.060000   11.937   14.575   52.208  # HC c2c1im+
    271      11    1   2.057313   21.470   14.038    2.391  # NA c2c1im+ DC
    272      11   13  -1.907313   21.498   14.071    2.375  # NA c2c1im+ DP
    273      11    2   1.976039   20.202   13.731    2.556  # CR c2c1im+ DC
    274      11   14  -2.086039   20.213   13.760    2.544  # CR c2c1im+ DP
    275      11    1   2.057313   19.979   12.510    2.121  # NA c2c1im+ DC
    276      11   13  -1.907313   19.986   12.483    2.079  # NA c2c1im+ DP
    277      11    3   1.956039   21.170   12.002    1.650  # CW c2c1im+ DC
    278      11   15  -2.086039   21.147   12.041    1.657  # CW c2c1im+ DP
    279      11    3   1.956039   22.099   12.955    1.819  # CW c2c1im+ DC
    280      11   15  -2.086039   22.142   12.950    1.796  # CW c2c1im+ DP
    281      11    4   2.274943   22.112   15.307    2.750  # C1 c2c1im+ DC
    282      11   16  -2.444943   22.140   15.339    2.701  # C1 c2c1im+ DP
    283      11    5   0.210000   19.455   14.384    2.984  # HCR c2c1im+
    284      11    4   2.067196   18.693   11.806    2.132  # C1 c2c1im+ DC
    285      11   16  -2.237196   18.710   11.765    2.094  # C1 c2c1im+ DP
    286      11    6   0.210000   21.326   11.022    1.225  # HCW c2c1im+
    287      11    6   0.210000   23.144   12.885    1.555  # HCW c2c1im+
    288      11    7   0.130000   22.538   15.764    1.857  # H1 c2c1im+
    289      11    7   0.130000   21.372   15.979    3.184  # H1 c2c1im+
    290      11    7   0.130000   22.903   15.121    3.476  # H1 c2c1im+
    291      11    8   2.394943   17.626   12.708    2.731  # CE c2c1im+ DC
    292      11   17  -2.444943   17.665   12.662    2.705  # CE c2c1im+ DP
    293      11    7   0.130000   18.414   11.542    1.112  # H1 c2c1im+
    294      11    7   0.130000   18.780   10.899    2.731  # H1 c2c1im+
    295      11    9   0.060000   16.670   12.184    2.739  # HC c2c1im+
    296      11    9   0.060000   17.904   12.972    3.752  # HC c2c1im+
    297      11    9   0.060000   17.538   13.615    2.133  # HC c2c1im+
    298      12    1   2.057313   24.281    3.973   27.399  # NA c2c1im+ DC
    299      12   13  -1.907313   24.330    3.965   27.360  # NA c2c1im+ DP
    300      12    2   1.976039   24.393    3.162   26.370  # CR c2c1im+ DC
    301      12   14  -2.086039   24.360    3.136   26.394  # CR c2c1im+ DP
    302      12    1   2.057313   23.346    3.291   25.585  # NA c2c1im+ DC
    303      12   13  -1.907313   23.306    3.332   25.573  # NA c2c1im+ DP
    304      12    3   1.956039   22.512    4.238   26.139  # CW c2c1im+ DC
    305      12   15  -2.086039   22.559    4.279   26.118  # CW c2c1im+ DP
    306      12    3   1.956039   23.095    4.663   27.269  # CW c2c1im+ DC
    307      12   15  -2.086039   23.070    4.661   27.229  # CW c2c1im+ DP
    308      12    4   2.274943   25.241    4.125   28.496  # C1 c2c1im+ DC
    309      12   16  -2.444943   25.256    4.079   28.447  # C1 c2c1im+ DP
    310      12    5   0.210000   25.221    2.491   26.196  # HCR c2c1im+
    311      12    4   2.067196   23.101    2.560   24.338  # C1 c2c1im+ DC
    312      12   16  -2.237196   23.149    2.539   24.348  # C1 c2c1im+ DP
    313      12    6   0.210000   21.568    4.575   25.738  # HCW c2c1im+
    314      12    6   0.210000   22.708    5.407   27.950  # HCW c2c1im+
    315      12    7   0.130000   24.756    3.880   29.441  # H1 c2c1im+
    316      12    7   0.130000   26.085    3.454   28.337  # H1 c2c1im+
    317      12    7   0.130000   25.597    5.155   28.528  # H1 c2c1im+
    318      12    8   2.394943   24.256    1.608   24.073  # CE c2c1im+ DC
    319      12   17  -2.444943   24.251    1.589   24.029  # CE c2c1im+ DP
    320      12    7   0.130000   22.175    1.992   24.425  # H1 c2c1im+
    321      12    7   0.130000   23.017    3.266   23.512  # H1 c2c1im+
    322      12    9   0.060000   24.074    1.064   23.146  # HC c2c1im+
    323      12    9   0.060000   25.182    2.175   23.985  # HC c2c1im+
    324      12    9   0.060000   24.341    0.900   24.898  # HC c2c1im+
    325      13    1   2.057313    9.183    5.010   10.494  # NA c2c1im+ DC
    326      13   13  -1.907313    9.224    5.057   10.541  # NA c2c1im+ DP
    327      13    2   1.976039   10.034    5.837   11.061  # CR c2c1im+ DC
    328      13   14  -2.086039    9.995    5.809   11.073  # CR c2c1im+ DP
    329      13    1   2.057313   10.424    6.741   10.189  # NA c2c1im+ DC
    330      13   13  -1.907313   10.472    6.745   10.208  # NA c2c1im+ DP
    331      13    3   1.956039    9.790    6.481    8.994  # CW c2c1im+ DC
    332      13   15  -2.086039    9.806    6.457    8.998  # CW c2c1im+ DP
    333      13    3   1.956039    9.016    5.403    9.184  # CW c2c1im+ DC
    334      13   15  -2.086039    8.997    5.377    9.142  # CW c2c1im+ DP
    335      13    4   2.274943    8.523    3.868   11.134  # C1 c2c1im+ DC
    336      13   16  -2.444943    8.501    3.916   11.128  # C1 c2c1im+ DP
    337      13    5   0.210000   10.363    5.782   12.089  # HCR c2c1im+
    338      13    4   2.067196   11.368    7.835   10.437  # C1 c2c1im+ DC
    339      13   16  -2.237196   11.384    7.849   10.481  # C1 c2c1im+ DP
    340      13    6   0.210000    9.896    7.042    8.077  # HCW c2c1im+
    341      13    6   0.210000    8.382    4.930    8.449  # HCW c2c1im+
    342      13    7   0.130000    8.791    2.951   10.608  # H1 c2c1im+
    343      13    7   0.130000    8.843    3.797   12.173  # H1 c2c1im+
    344      13    7   0.130000    7.442    4.005   11.096  # H1 c2c1im+
    345      13    8   2.394943   11.845    7.777   11.880  # CE c2c1im+ DC
    346      13   17  -2.444943   11.834    7.758   11.862  # CE c2c1im+ DP
    347      13    7   0.130000   12.223    7.736    9.769  # H1 c2c1im+
    348      13    7   0.130000   10.874    8.789   10.256  # H1 c2c1im+
    349      13    9   0.060000   12.546    8.591   12.064  # HC c2c1im+
    350      13    9   0.060000   10.990    7.876   12.549  # HC c2c1im+
    351      13    9   0.060000   12.339    6.823   12.062  # HC c2c1im+
    352      14    1   2.057313   20.538   24.882   22.118  # NA c2c1im+ DC
    353      14   13  -1.907313   20.520   24.917   22.157  # NA c2c1im+ DP