created by fftool

24 atoms
8 bonds
4 angles
0 dihedrals
4 atom types
3 bond types
3 angle types
4 dihedral types
0.000000 30.000000 xlo xhi
0.000000 30.000000 ylo yhi
-30.000000 30.000000 zlo zhi

Masses

   1    1.008  # Hw
   2   15.999  # Ow
   3   12.011  # CA
   4   11.008  # HA

Bond Coeffs

   1   517.630258     1.000000  # Ow-Hw
   2   469.000956     1.400000  # CA-CA
   3   367.005258     1.080000  # CA-HA

Angle Coeffs

   1    37.950526   109.470000  # Hw-Ow-Hw
   2    35.002390   120.000000  # CA-CA-HA
   3    63.001912   120.000000  # CA-CA-CA

Dihedral Coeffs

   1     0.000000     7.250000     0.000000     0.000000  # CA-CA-CA-HA
   2     0.000000     7.250000     0.000000     0.000000  # CA-CA-CA-CA
   3     0.000000     7.250000     0.000000     0.000000  # HA-CA-CA-HA
   4     0.000000     2.200000     0.000000     0.000000  # CA-CA-CA-HA

Atoms

      1       1    1   0.423800   -15.806   13.943    6.375  # Hw SPCE
      2       1    2  -0.847600   -15.137   13.201    6.424  # Ow SPCE
      3       1    1   0.423800   -14.496   13.280    5.661  # Hw SPCE
      4       2    1   0.423800   12.246    2.774   28.466  # Hw SPCE
      5       2    2  -0.847600   11.749    3.638   28.381  # Ow SPCE
      6       2    1   0.423800   10.772    3.452   28.279  # Hw SPCE
      7       3    1   0.423800   12.121   18.156   10.161  # Hw SPCE
      8       3    2  -0.847600   12.659   18.952    9.882  # Ow SPCE
      9       3    1   0.423800   12.723   19.595   10.645  # Hw SPCE
     10       4    1   0.423800   16.119    6.143   23.137  # Hw SPCE
     11       4    2  -0.847600   15.293    6.395   22.632  # Ow SPCE
     12       4    1   0.423800   14.758    5.574   22.437  # Hw SPCE
     13       5    3   0   0    13.943   -06.375  # CA benzene
     14       5    3   0   0    13.201   -06.424  # CA benzene
     15       5    3   0   0    13.280   -05.661  # CA benzene
     16       5    3   0   12.246    2.774   -28.466  # CA benzene
     17       5    3   0   11.749    3.638   -28.381  # CA benzene
     18       5    3   0   10.772    3.452   -28.279  # CA benzene
     19       5    4   0   12.121   18.156   -10.161  # HA benzene
     20       5    4   0   12.659   18.952   -09.882  # HA benzene
     21       5    4   0   12.723   19.595   -10.645  # HA benzene
     22       5    4   0   16.119    6.143   -23.137  # HA benzene
     23       5    4   0   15.293    6.395   -22.632  # HA benzene
     24       5    4   0   14.758    5.574   -22.437  # HA benzene

Bonds

      1    1       2       1  # Ow-Hw
      2    1       3       2  # Ow-Hw
      3    1       5       4  # Ow-Hw
      4    1       6       5  # Ow-Hw
      5    1       8       7  # Ow-Hw
      6    1       9       8  # Ow-Hw
      7    1      11      10  # Ow-Hw
      8    1      12      11  # Ow-Hw

Angles

      1    1       1       2       3  # Hw-Ow-Hw
      2    1       4       5       6  # Hw-Ow-Hw
      3    1       7       8       9  # Hw-Ow-Hw
      4    1      10      11      12  # Hw-Ow-Hw
