LAMMPS data file via write_data, version 7 Aug 2019, timestep = 0

1728 atoms
4 atom types
640 bonds
2 bond types
320 angles
1 angle types

0.0000000000000000e+00 1.9675999999999998e+01 xlo xhi
0.0000000000000000e+00 1.7039999999999999e+01 ylo yhi
-4.0200000000000003e+01 4.0200000000000003e+01 zlo zhi

Masses

1 12.0107
2 15.0345
3 12.01
4 14.0067

Pair Coeffs # lj/cut/coul/long

1 0.0993585 3.4
2 0.379549 3.6
3 0.05497 3.37
4 0.0993585 3.3

Bond Coeffs # harmonic

1 380 1.46
2 600 1.157

Angle Coeffs # harmonic

1 20 180

Atoms # full

1 1 4 -3.9800000000000002e-01 8.8510000000000009e+00 9.7499999999999998e-01 -6.3349989999999998e+00 0 0 0
2 1 2 2.6900000000000002e-01 6.3879999999999999e+00 1.4190000000000000e+00 -5.5540010000000004e+00 0 0 0
3 1 1 1.2900000000000000e-01 7.6195000000000004e+00 1.1970000000000001e+00 -5.9444999999999997e+00 0 0 0
4 2 4 -3.9800000000000002e-01 5.9770000000000003e+00 5.7690000000000001e+00 -1.8480000000000001e+00 0 0 0
5 2 2 2.6900000000000002e-01 7.8390000000000004e+00 6.8959999999999999e+00 -3.3090020000000000e+00 0 0 0
6 2 1 1.2900000000000000e-01 6.9080000000000004e+00 6.3324999999999996e+00 -2.5785010000000002e+00 0 0 0
7 3 4 -3.9800000000000002e-01 6.1219999999999999e+00 4.8319999999999999e+00 1.2683998000000001e+01 0 0 0
8 3 2 2.6900000000000002e-01 3.7919999999999998e+00 5.2869999999999999e+00 1.3798000000000000e+01 0 0 0
9 3 1 1.2900000000000000e-01 4.9569999999999999e+00 5.0594999999999999e+00 1.3240999000000000e+01 0 0 0
10 4 4 -3.9800000000000002e-01 7.2519999999999998e+00 2.5299999999999998e+00 -1.3560001000000000e+01 0 0 0
11 4 2 2.6900000000000002e-01 5.0369999999999999e+00 1.6130000000000000e+00 -1.2497002000000000e+01 0 0 0
12 4 1 1.2900000000000000e-01 6.1444999999999999e+00 2.0714999999999999e+00 -1.3028502000000000e+01 0 0 0
13 5 4 -3.9800000000000002e-01 7.9429999999999996e+00 7.5259999999999998e+00 1.6175999000000001e+01 0 0 0
14 5 2 2.6900000000000002e-01 5.7469999999999999e+00 6.6799999999999997e+00 1.7330997000000000e+01 0 0 0
15 5 1 1.2900000000000000e-01 6.8449999999999998e+00 7.1029999999999998e+00 1.6753498000000000e+01 0 0 0
16 6 4 -3.9800000000000002e-01 8.5800000000000001e+00 4.0650000000000004e+00 2.0260998000000001e+01 0 0 0
17 6 2 2.6900000000000002e-01 8.2449999999999992e+00 1.7940000000000000e+00 2.1527999999999999e+01 0 0 0
18 6 1 1.2900000000000000e-01 8.4124999999999996e+00 2.9295000000000000e+00 2.0894499000000000e+01 0 0 0
19 7 4 -3.9800000000000002e-01 4.1699999999999999e+00 7.5209999999999999e+00 -2.6691002000000001e+01 0 0 0
20 7 2 2.6900000000000002e-01 1.6430000000000000e+00 7.0190000000000001e+00 -2.6205002000000000e+01 0 0 0
21 7 1 1.2900000000000000e-01 2.9064999999999999e+00 7.2699999999999996e+00 -2.6448001999999999e+01 0 0 0
22 8 4 -3.9800000000000002e-01 1.9930000000000001e+00 7.5259999999999998e+00 -9.6640010000000007e+00 0 0 0
23 8 2 2.6900000000000002e-01 3.9489999999999998e+00 6.7539999999999996e+00 -1.1231000999999999e+01 0 0 0
24 8 1 1.2900000000000000e-01 2.9710000000000001e+00 7.1399999999999997e+00 -1.0447501000000001e+01 0 0 0
25 9 4 -3.9800000000000002e-01 5.0650000000000004e+00 3.0070000000000001e+00 -1.8692001000000001e+01 0 0 0
26 9 2 2.6900000000000002e-01 4.8419999999999996e+00 4.7430000000000003e+00 -1.6740002000000000e+01 0 0 0
27 9 1 1.2900000000000000e-01 4.9535000000000000e+00 3.8750000000000000e+00 -1.7716002000000000e+01 0 0 0
28 10 4 -3.9800000000000002e-01 3.2080000000000002e+00 1.5169999999999999e+00 -1.8274000000000001e+01 0 0 0
29 10 2 2.6900000000000002e-01 1.9399999999999999e+00 3.7599999999999998e+00 -1.7791000000000000e+01 0 0 0
30 10 1 1.2900000000000000e-01 2.5739999999999998e+00 2.6385000000000001e+00 -1.8032499999999999e+01 0 0 0
31 11 4 -3.9800000000000002e-01 1.1140000000000001e+00 3.7610000000000001e+00 -2.5317001000000001e+01 0 0 0
32 11 2 2.6900000000000002e-01 1.5040000000000000e+00 1.9270000000000000e+00 -2.7151001000000001e+01 0 0 0
33 11 1 1.2900000000000000e-01 1.3089999999999999e+00 2.8439999999999999e+00 -2.6234000999999999e+01 0 0 0
34 12 4 -3.9800000000000002e-01 8.4290000000000003e+00 7.5300000000000002e+00 2.8289990000000000e+00 0 0 0
35 12 2 2.6900000000000002e-01 8.0960000000000001e+00 7.0190000000000001e+00 2.7899900000000000e-01 0 0 0
36 12 1 1.2900000000000000e-01 8.2624999999999993e+00 7.2744999999999997e+00 1.5539989999999999e+00 0 0 0
37 13 4 -3.9800000000000002e-01 5.8289999999999997e+00 7.0739999999999998e+00 1.4202000000000000e+01 0 0 0
38 13 2 2.6900000000000002e-01 8.3100000000000005e+00 6.4859999999999998e+00 1.3591998999999999e+01 0 0 0
39 13 1 1.2900000000000000e-01 7.0694999999999997e+00 6.7800000000000002e+00 1.3896998999999999e+01 0 0 0
40 14 4 -3.9800000000000002e-01 5.7140000000000004e+00 1.5340000000000000e+00 -8.8200000000000001e-01 0 0 0
41 14 2 2.6900000000000002e-01 8.1880000000000006e+00 1.5109999999999999e+00 -1.2001000000000000e-02 0 0 0
42 14 1 1.2900000000000000e-01 6.9509999999999996e+00 1.5225000000000000e+00 -4.4700099999999998e-01 0 0 0
43 15 4 -3.9800000000000002e-01 7.1539999999999999e+00 2.2260000000000000e+00 -1.7805000000000000e+01 0 0 0
44 15 2 2.6900000000000002e-01 5.4089999999999998e+00 1.5830000000000000e+00 -1.5957001000000000e+01 0 0 0
45 15 1 1.2900000000000000e-01 6.2815000000000003e+00 1.9045000000000001e+00 -1.6881000000000000e+01 0 0 0
46 16 4 -3.9800000000000002e-01 4.0430000000000001e+00 3.4529999999999998e+00 2.6206997000000001e+01 0 0 0
47 16 2 2.6900000000000002e-01 1.5509999999999999e+00 3.7260000000000000e+00 2.5439999000000000e+01 0 0 0
48 16 1 1.2900000000000000e-01 2.7970000000000002e+00 3.5895000000000001e+00 2.5823498000000001e+01 0 0 0
49 17 4 -3.9800000000000002e-01 8.6969999999999992e+00 1.0140000000000000e+00 -3.3670010000000001e+00 0 0 0
50 17 2 2.6900000000000002e-01 7.9790000000000001e+00 3.4520000000000000e+00 -2.7220000000000000e+00 0 0 0
51 17 1 1.2900000000000000e-01 8.3379999999999992e+00 2.2330000000000001e+00 -3.0445000000000002e+00 0 0 0
52 18 4 -3.9800000000000002e-01 1.0830000000000000e+00 9.9800000000000000e-01 2.3978000999999999e+01 0 0 0
53 18 2 2.6900000000000002e-01 3.5259999999999998e+00 1.9090000000000000e+00 2.3702000000000002e+01 0 0 0
54 18 1 1.2900000000000000e-01 2.3045000000000000e+00 1.4535000000000000e+00 2.3840001000000001e+01 0 0 0
55 19 4 -3.9800000000000002e-01 1.0009999999999999e+00 4.5960000000000001e+00 -1.4555000000000000e+01 0 0 0
56 19 2 2.6900000000000002e-01 1.8129999999999999e+00 6.7919999999999998e+00 -1.5734000999999999e+01 0 0 0
57 19 1 1.2900000000000000e-01 1.4070000000000000e+00 5.6940000000000000e+00 -1.5144500000000001e+01 0 0 0
58 20 4 -3.9800000000000002e-01 5.0960000000000001e+00 6.4249999999999998e+00 8.6089970000000005e+00 0 0 0
59 20 2 2.6900000000000002e-01 7.0960000000000001e+00 6.9059999999999997e+00 1.0233997000000000e+01 0 0 0
60 20 1 1.2900000000000000e-01 6.0960000000000001e+00 6.6654999999999998e+00 9.4214970000000005e+00 0 0 0
61 21 4 -3.9800000000000002e-01 8.8390000000000004e+00 1.1259999999999999e+00 1.0568001000000001e+01 0 0 0
62 21 2 2.6900000000000002e-01 6.6639999999999997e+00 1.4560000000000000e+00 1.1994999000000000e+01 0 0 0
63 21 1 1.2900000000000000e-01 7.7515000000000001e+00 1.2909999999999999e+00 1.1281499999999999e+01 0 0 0
64 22 4 -3.9800000000000002e-01 1.4950000000000001e+00 7.5209999999999999e+00 -2.2815000999999999e+01 0 0 0
65 22 2 2.6900000000000002e-01 3.9449999999999998e+00 7.0839999999999996e+00 -2.1987000999999999e+01 0 0 0
66 22 1 1.2900000000000000e-01 2.7200000000000002e+00 7.3025000000000002e+00 -2.2401001000000001e+01 0 0 0
67 23 4 -3.9800000000000002e-01 8.1319999999999997e+00 5.1500000000000004e+00 2.7589990000000002e+00 0 0 0
68 23 2 2.6900000000000002e-01 6.1890000000000001e+00 4.5090000000000003e+00 1.1189990000000001e+00 0 0 0
69 23 1 1.2900000000000000e-01 7.1604999999999999e+00 4.8295000000000003e+00 1.9389989999999999e+00 0 0 0
70 24 4 -3.9800000000000002e-01 8.3300000000000001e+00 2.5139999999999998e+00 -1.9877001000000000e+01 0 0 0
71 24 2 2.6900000000000002e-01 6.0199999999999996e+00 1.6259999999999999e+00 -2.0742000999999998e+01 0 0 0
72 24 1 1.2900000000000000e-01 7.1749999999999998e+00 2.0699999999999998e+00 -2.0309501000000001e+01 0 0 0
73 25 4 -3.9800000000000002e-01 3.7040000000000002e+00 7.5250000000000004e+00 -1.8358001999999999e+01 0 0 0
74 25 2 2.6900000000000002e-01 1.7270000000000001e+00 6.6100000000000003e+00 -1.9817001000000001e+01 0 0 0
75 25 1 1.2900000000000000e-01 2.7155000000000000e+00 7.0674999999999999e+00 -1.9087502000000001e+01 0 0 0
76 26 4 -3.9800000000000002e-01 8.8450000000000006e+00 3.3109999999999999e+00 -5.5830000000000002e+00 0 0 0
77 26 2 2.6900000000000002e-01 8.0359999999999996e+00 3.3980000000000001e+00 -8.0750010000000003e+00 0 0 0
78 26 1 1.2900000000000000e-01 8.4405000000000001e+00 3.3544999999999998e+00 -6.8290009999999999e+00 0 0 0
79 27 4 -3.9800000000000002e-01 3.5810000000000000e+00 3.5120000000000000e+00 -9.9619999999999997e+00 0 0 0
80 27 2 2.6900000000000002e-01 3.1059999999999999e+00 5.0119999999999996e+00 -7.8650019999999996e+00 0 0 0
81 27 1 1.2900000000000000e-01 3.3435000000000001e+00 4.2619999999999996e+00 -8.9135010000000001e+00 0 0 0
82 28 4 -3.9800000000000002e-01 6.1589999999999998e+00 5.1440000000000001e+00 2.6732997999999998e+01 0 0 0
83 28 2 2.6900000000000002e-01 7.2249999999999996e+00 6.4500000000000002e+00 2.4724003000000000e+01 0 0 0
84 28 1 1.2900000000000000e-01 6.6920000000000002e+00 5.7969999999999997e+00 2.5728500000000000e+01 0 0 0
85 29 4 -3.9800000000000002e-01 4.1609999999999996e+00 7.5309999999999997e+00 1.1090000000000000e+01 0 0 0
86 29 2 2.6900000000000002e-01 1.7240000000000000e+00 7.0430000000000001e+00 1.1927998000000001e+01 0 0 0
87 29 1 1.2900000000000000e-01 2.9424999999999999e+00 7.2869999999999999e+00 1.1508998999999999e+01 0 0 0
88 30 4 -3.9800000000000002e-01 1.0000000000000000e+00 1.4130000000000000e+00 -2.3328001000000000e+01 0 0 0
89 30 2 2.6900000000000002e-01 1.5800000000000001e+00 1.6919999999999999e+00 -2.0786000999999999e+01 0 0 0
90 30 1 1.2900000000000000e-01 1.2900000000000000e+00 1.5525000000000000e+00 -2.2057001000000000e+01 0 0 0
91 31 4 -3.9800000000000002e-01 3.3690000000000002e+00 9.9700000000000000e-01 6.3460010000000002e+00 0 0 0
92 31 2 2.6900000000000002e-01 5.9050000000000002e+00 1.6639999999999999e+00 6.3949999999999996e+00 0 0 0
93 31 1 1.2900000000000000e-01 4.6369999999999996e+00 1.3305000000000000e+00 6.3705010000000000e+00 0 0 0
94 32 4 -3.9800000000000002e-01 3.9430000000000001e+00 3.7229999999999999e+00 -6.8899900000000003e-01 0 0 0
95 32 2 2.6900000000000002e-01 3.2330000000000001e+00 1.5600000000000001e+00 6.1199999999999999e-01 0 0 0
96 32 1 1.2900000000000000e-01 3.5880000000000001e+00 2.6415000000000002e+00 -3.8500000000000000e-02 0 0 0
97 33 4 -3.9800000000000002e-01 1.0000000000000000e+00 1.2580000000000000e+00 -1.6845001000000000e+01 0 0 0
98 33 2 2.6900000000000002e-01 1.8149999999999999e+00 1.8810000000000000e+00 -1.4432001000000000e+01 0 0 0
99 33 1 1.2900000000000000e-01 1.4075000000000000e+00 1.5694999999999999e+00 -1.5638501000000000e+01 0 0 0
100 34 4 -3.9800000000000002e-01 8.6660000000000004e+00 2.2860000000000000e+00 -2.5629002000000000e+01 0 0 0
101 34 2 2.6900000000000002e-01 7.1180000000000003e+00 1.6690000000000000e+00 -2.7652999999999999e+01 0 0 0
102 34 1 1.2900000000000000e-01 7.8920000000000003e+00 1.9775000000000000e+00 -2.6641000999999999e+01 0 0 0
103 35 4 -3.9800000000000002e-01 9.9399999999999999e-01 3.8860000000000001e+00 1.8003997999999999e+01 0 0 0
104 35 2 2.6900000000000002e-01 1.4370000000000001e+00 3.2460000000000000e+00 1.5500000000000000e+01 0 0 0
105 35 1 1.2900000000000000e-01 1.2155000000000000e+00 3.5659999999999998e+00 1.6751999000000001e+01 0 0 0
106 36 4 -3.9800000000000002e-01 5.3209999999999997e+00 2.5830000000000002e+00 -8.0510029999999997e+00 0 0 0
107 36 2 2.6900000000000002e-01 2.9729999999999999e+00 2.2220000000000000e+00 -6.9410020000000001e+00 0 0 0
108 36 1 1.2900000000000000e-01 4.1470000000000002e+00 2.4024999999999999e+00 -7.4960019999999998e+00 0 0 0
109 37 4 -3.9800000000000002e-01 4.4459999999999997e+00 4.3470000000000004e+00 -1.3808999999999999e+01 0 0 0
110 37 2 2.6900000000000002e-01 5.2919999999999998e+00 6.8010000000000002e+00 -1.4175001000000000e+01 0 0 0
111 37 1 1.2900000000000000e-01 4.8689999999999998e+00 5.5739999999999998e+00 -1.3992000000000001e+01 0 0 0
112 38 4 -3.9800000000000002e-01 8.7430000000000003e+00 1.2200000000000000e+00 1.8677997999999999e+01 0 0 0
113 38 2 2.6900000000000002e-01 6.2779999999999996e+00 2.0040000000000000e+00 1.9105999000000001e+01 0 0 0
114 38 1 1.2900000000000000e-01 7.5105000000000004e+00 1.6120000000000001e+00 1.8891998000000001e+01 0 0 0
115 39 4 -3.9800000000000002e-01 8.8390000000000004e+00 5.3479999999999999e+00 2.2320999000000000e+01 0 0 0
116 39 2 2.6900000000000002e-01 6.8769999999999998e+00 6.6429999999999998e+00 2.1160000000000000e+01 0 0 0
117 39 1 1.2900000000000000e-01 7.8579999999999997e+00 5.9954999999999998e+00 2.1740499000000000e+01 0 0 0
118 40 4 -3.9800000000000002e-01 3.7429999999999999e+00 7.5129999999999999e+00 1.9566998000000002e+01 0 0 0
119 40 2 2.6900000000000002e-01 3.7909999999999999e+00 4.9039999999999999e+00 1.9311001000000001e+01 0 0 0
120 40 1 1.2900000000000000e-01 3.7669999999999999e+00 6.2084999999999999e+00 1.9439000000000000e+01 0 0 0
121 41 4 -3.9800000000000002e-01 8.7530000000000001e+00 1.0920000000000001e+00 8.1699979999999996e+00 0 0 0
122 41 2 2.6900000000000002e-01 8.1370000000000005e+00 3.6379999999999999e+00 8.2809980000000003e+00 0 0 0
123 41 1 1.2900000000000000e-01 8.4450000000000003e+00 2.3650000000000002e+00 8.2254980000000000e+00 0 0 0
124 42 4 -3.9800000000000002e-01 5.2060000000000004e+00 3.1829999999999998e+00 -2.6560020000000000e+00 0 0 0
125 42 2 2.6900000000000002e-01 3.2559999999999998e+00 1.6310000000000000e+00 -3.4729999999999999e+00 0 0 0
126 42 1 1.2900000000000000e-01 4.2309999999999999e+00 2.4070000000000000e+00 -3.0645009999999999e+00 0 0 0
127 43 4 -3.9800000000000002e-01 5.3289999999999997e+00 4.5529999999999999e+00 -4.6220020000000002e+00 0 0 0
128 43 2 2.6900000000000002e-01 4.7149999999999999e+00 7.0099999999999998e+00 -5.2999989999999997e+00 0 0 0
129 43 1 1.2900000000000000e-01 5.0220000000000002e+00 5.7815000000000003e+00 -4.9610000000000003e+00 0 0 0
130 44 4 -3.9800000000000002e-01 8.8399999999999999e+00 7.3239999999999998e+00 -1.7161000999999999e+01 0 0 0
131 44 2 2.6900000000000002e-01 8.3910000000000000e+00 4.8179999999999996e+00 -1.7785000000000000e+01 0 0 0
132 44 1 1.2900000000000000e-01 8.6155000000000008e+00 6.0709999999999997e+00 -1.7472999999999999e+01 0 0 0
133 45 4 -3.9800000000000002e-01 8.8369999999999997e+00 9.9900000000000000e-01 2.4786999000000002e+01 0 0 0
134 45 2 2.6900000000000002e-01 7.8559999999999999e+00 2.6549999999999998e+00 2.6565998000000000e+01 0 0 0
135 45 1 1.2900000000000000e-01 8.3465000000000007e+00 1.8270000000000000e+00 2.5676499000000000e+01 0 0 0
136 46 4 -3.9800000000000002e-01 8.8759999999999994e+00 2.8700000000000001e+00 2.8130000000000002e+00 0 0 0
137 46 2 2.6900000000000002e-01 6.4169999999999998e+00 1.9640000000000000e+00 2.9030000000000000e+00 0 0 0
138 46 1 1.2900000000000000e-01 7.6464999999999996e+00 2.4169999999999998e+00 2.8580000000000001e+00 0 0 0
139 47 4 -3.9800000000000002e-01 9.6699999999999997e-01 6.0869999999999997e+00 5.8999999999999997e-01 0 0 0
140 47 2 2.6900000000000002e-01 3.2549999999999999e+00 6.9550000000000001e+00 -3.5000199999999998e-01 0 0 0
141 47 1 1.2900000000000000e-01 2.1110000000000002e+00 6.5209999999999999e+00 1.1999899999999999e-01 0 0 0
142 48 4 -3.9800000000000002e-01 9.8399999999999999e-01 3.2040000000000002e+00 1.1528000000000000e+01 0 0 0
143 48 2 2.6900000000000002e-01 2.3220000000000001e+00 4.8120000000000003e+00 9.9469989999999999e+00 0 0 0
144 48 1 1.2900000000000000e-01 1.6530000000000000e+00 4.0080000000000000e+00 1.0737500000000001e+01 0 0 0
145 49 4 -3.9800000000000002e-01 1.0289999999999999e+00 1.2120000000000000e+00 1.9030998000000000e+01 0 0 0
146 49 2 2.6900000000000002e-01 1.4470000000000001e+00 2.7829999999999999e+00 2.1089001000000000e+01 0 0 0
147 49 1 1.2900000000000000e-01 1.2380000000000000e+00 1.9975000000000001e+00 2.0059999000000001e+01 0 0 0
148 50 4 -3.9800000000000002e-01 7.3170000000000002e+00 7.2709999999999999e+00 -1.0968999999999999e+01 0 0 0
149 50 2 2.6900000000000002e-01 5.8680000000000003e+00 7.0430000000000001e+00 -8.7960010000000004e+00 0 0 0
150 50 1 1.2900000000000000e-01 6.5925000000000002e+00 7.1570000000000000e+00 -9.8825000000000003e+00 0 0 0
151 51 4 -3.9800000000000002e-01 8.6769999999999996e+00 6.0780000000000003e+00 -9.2599999999999998e+00 0 0 0
152 51 2 2.6900000000000002e-01 8.1210000000000004e+00 6.2089999999999996e+00 -6.7009999999999996e+00 0 0 0
153 51 1 1.2900000000000000e-01 8.3989999999999991e+00 6.1435000000000004e+00 -7.9805000000000001e+00 0 0 0
154 52 4 -3.9800000000000002e-01 8.3209999999999997e+00 4.3010000000000002e+00 -2.4326000000000001e+01 0 0 0
155 52 2 2.6900000000000002e-01 8.3279999999999994e+00 5.5460000000000003e+00 -2.6634001000000001e+01 0 0 0
156 52 1 1.2900000000000000e-01 8.3245000000000005e+00 4.9234999999999998e+00 -2.5480001000000001e+01 0 0 0
157 53 4 -3.9800000000000002e-01 5.7100000000000000e+00 7.5220000000000002e+00 6.5649990000000003e+00 0 0 0
158 53 2 2.6900000000000002e-01 8.2219999999999995e+00 6.7740000000000000e+00 6.6109999999999998e+00 0 0 0
159 53 1 1.2900000000000000e-01 6.9660000000000002e+00 7.1479999999999997e+00 6.5880000000000001e+00 0 0 0
160 54 4 -3.9800000000000002e-01 5.2839999999999998e+00 3.0579999999999998e+00 1.4526001000000001e+01 0 0 0
161 54 2 2.6900000000000002e-01 3.3420000000000001e+00 1.6299999999999999e+00 1.3493000000000000e+01 0 0 0
162 54 1 1.2900000000000000e-01 4.3129999999999997e+00 2.3439999999999999e+00 1.4009501000000000e+01 0 0 0
163 55 4 -3.9800000000000002e-01 4.2580000000000000e+00 5.0850000000000000e+00 -1.9710000999999998e+01 0 0 0
164 55 2 2.6900000000000002e-01 6.3780000000000001e+00 6.5979999999999999e+00 -1.9408999999999999e+01 0 0 0
165 55 1 1.2900000000000000e-01 5.3179999999999996e+00 5.8414999999999999e+00 -1.9559500000000000e+01 0 0 0
166 56 4 -3.9800000000000002e-01 6.2260000000000000e+00 9.9600000000000000e-01 2.3646999000000001e+01 0 0 0
167 56 2 2.6900000000000002e-01 6.6349999999999998e+00 3.5850000000000000e+00 2.3728000999999999e+01 0 0 0
168 56 1 1.2900000000000000e-01 6.4305000000000003e+00 2.2905000000000002e+00 2.3687500000000000e+01 0 0 0
169 57 4 -3.9800000000000002e-01 8.8430000000000000e+00 7.4610000000000003e+00 -1.4765001000000000e+01 0 0 0
170 57 2 2.6900000000000002e-01 8.0999999999999996e+00 5.2830000000000004e+00 -1.3508001000000000e+01 0 0 0
171 57 1 1.2900000000000000e-01 8.4715000000000007e+00 6.3719999999999999e+00 -1.4136501000000001e+01 0 0 0
172 58 4 -3.9800000000000002e-01 3.8590000000000000e+00 5.3019999999999996e+00 -2.8710019999999998e+00 0 0 0
173 58 2 2.6900000000000002e-01 1.6259999999999999e+00 4.1280000000000001e+00 -2.1570010000000002e+00 0 0 0
174 58 1 1.2900000000000000e-01 2.7425000000000002e+00 4.7149999999999999e+00 -2.5140020000000001e+00 0 0 0
175 59 4 -3.9800000000000002e-01 8.8409999999999993e+00 4.3609999999999998e+00 -2.1422001000000002e+01 0 0 0
176 59 2 2.6900000000000002e-01 8.3109999999999999e+00 6.8719999999999999e+00 -2.1957001000000002e+01 0 0 0
177 59 1 1.2900000000000000e-01 8.5760000000000005e+00 5.6165000000000003e+00 -2.1689501000000000e+01 0 0 0
178 60 4 -3.9800000000000002e-01 4.4790000000000001e+00 4.1470000000000002e+00 7.5379980000000000e+00 0 0 0
179 60 2 2.6900000000000002e-01 5.4299999999999997e+00 3.3999999999999999e+00 9.8649979999999999e+00 0 0 0
180 60 1 1.2900000000000000e-01 4.9545000000000003e+00 3.7734999999999999e+00 8.7014980000000008e+00 0 0 0
181 61 4 -3.9800000000000002e-01 4.0590000000000002e+00 9.9700000000000000e-01 3.9809990000000002e+00 0 0 0
182 61 2 2.6900000000000002e-01 1.4970000000000001e+00 1.5289999999999999e+00 3.8060000000000000e+00 0 0 0
183 61 1 1.2900000000000000e-01 2.7780000000000000e+00 1.2629999999999999e+00 3.8934989999999998e+00 0 0 0
184 62 4 -3.9800000000000002e-01 3.6170000000000000e+00 3.2919999999999998e+00 -2.5667000000000002e+01 0 0 0
185 62 2 2.6900000000000002e-01 3.6579999999999999e+00 4.4210000000000003e+00 -2.8033000999999999e+01 0 0 0
186 62 1 1.2900000000000000e-01 3.6375000000000002e+00 3.8565000000000000e+00 -2.6850000999999999e+01 0 0 0
187 63 4 -3.9800000000000002e-01 2.7100000000000000e+00 7.5220000000000002e+00 3.0579990000000001e+00 0 0 0
188 63 2 2.6900000000000002e-01 5.2919999999999998e+00 7.0839999999999996e+00 3.1709980000000000e+00 0 0 0
189 63 1 1.2900000000000000e-01 4.0010000000000003e+00 7.3029999999999999e+00 3.1144980000000002e+00 0 0 0
190 64 4 -3.9800000000000002e-01 8.8490000000000002e+00 2.8719999999999999e+00 -1.1637001000000000e+01 0 0 0
191 64 2 2.6900000000000002e-01 6.5199999999999996e+00 3.9159999999999999e+00 -1.1035000000000000e+01 0 0 0
192 64 1 1.2900000000000000e-01 7.6844999999999999e+00 3.3940000000000001e+00 -1.1336001000000000e+01 0 0 0
193 65 4 -3.9800000000000002e-01 5.4680000000000000e+00 5.0110000000000001e+00 5.3660009999999998e+00 0 0 0
194 65 2 2.6900000000000002e-01 3.3700000000000001e+00 6.5279999999999996e+00 5.7809980000000003e+00 0 0 0
195 65 1 1.2900000000000000e-01 4.4189999999999996e+00 5.7694999999999999e+00 5.5735000000000001e+00 0 0 0
196 66 4 -3.9800000000000002e-01 2.0550000000000002e+00 5.4550000000000001e+00 -2.3902000000000001e+01 0 0 0
197 66 2 2.6900000000000002e-01 3.4860000000000002e+00 3.6139999999999999e+00 -2.2703001000000000e+01 0 0 0
198 66 1 1.2900000000000000e-01 2.7705000000000002e+00 4.5345000000000004e+00 -2.3302500999999999e+01 0 0 0
199 67 4 -3.9800000000000002e-01 1.0020000000000000e+00 3.4449999999999998e+00 5.8799699999999999e-01 0 0 0
200 67 2 2.6900000000000002e-01 2.5739999999999998e+00 4.5629999999999997e+00 2.3629989999999998e+00 0 0 0
201 67 1 1.2900000000000000e-01 1.7880000000000000e+00 4.0039999999999996e+00 1.4754980000000000e+00 0 0 0
202 68 4 -3.9800000000000002e-01 9.8199999999999998e-01 6.7910000000000004e+00 -1.3046001000000000e+01 0 0 0
203 68 2 2.6900000000000002e-01 1.6810000000000000e+00 4.6189999999999998e+00 -1.1753000000000000e+01 0 0 0
204 68 1 1.2900000000000000e-01 1.3314999999999999e+00 5.7050000000000001e+00 -1.2399501000000001e+01 0 0 0
205 69 4 -3.9800000000000002e-01 3.9190000000000000e+00 3.2069999999999999e+00 5.0400010000000002e+00 0 0 0
206 69 2 2.6900000000000002e-01 1.5720000000000001e+00 3.8799999999999999e+00 5.9980010000000004e+00 0 0 0
207 69 1 1.2900000000000000e-01 2.7454999999999998e+00 3.5434999999999999e+00 5.5190010000000003e+00 0 0 0
208 70 4 -3.9800000000000002e-01 4.1330000000000000e+00 7.5209999999999999e+00 2.1936001000000001e+01 0 0 0
209 70 2 2.6900000000000002e-01 1.7549999999999999e+00 6.4160000000000004e+00 2.1918998999999999e+01 0 0 0
210 70 1 1.2900000000000000e-01 2.9440000000000000e+00 6.9684999999999997e+00 2.1927499999999998e+01 0 0 0
211 71 4 -3.9800000000000002e-01 5.3170000000000002e+00 9.8799999999999999e-01 1.5770000000000000e+01 0 0 0
212 71 2 2.6900000000000002e-01 3.3610000000000002e+00 1.4410000000000001e+00 1.7455997000000000e+01 0 0 0
213 71 1 1.2900000000000000e-01 4.3390000000000004e+00 1.2144999999999999e+00 1.6612998000000001e+01 0 0 0
214 72 4 -3.9800000000000002e-01 9.9800000000000000e-01 6.7820000000000000e+00 -2.6880000000000002e+00 0 0 0
215 72 2 2.6900000000000002e-01 1.6570000000000000e+00 5.7140000000000004e+00 -4.9900019999999996e+00 0 0 0
216 72 1 1.2900000000000000e-01 1.3274999999999999e+00 6.2480000000000002e+00 -3.8390010000000001e+00 0 0 0
217 73 4 -3.9800000000000002e-01 7.2300000000000004e+00 7.5199999999999996e+00 -2.4656002000000001e+01 0 0 0
218 73 2 2.6900000000000002e-01 5.5060000000000002e+00 5.5599999999999996e+00 -2.4900002000000001e+01 0 0 0
219 73 1 1.2900000000000000e-01 6.3680000000000003e+00 6.5400000000000000e+00 -2.4778002000000001e+01 0 0 0
220 74 4 -3.9800000000000002e-01 8.8460000000000001e+00 6.7679999999999998e+00 1.8457001000000002e+01 0 0 0
221 74 2 2.6900000000000002e-01 8.0229999999999997e+00 4.5490000000000004e+00 1.7327000000000002e+01 0 0 0
222 74 1 1.2900000000000000e-01 8.4344999999999999e+00 5.6585000000000001e+00 1.7892001000000000e+01 0 0 0
223 75 4 -3.9800000000000002e-01 4.0289999999999999e+00 1.5850000000000000e+00 8.7049979999999998e+00 0 0 0
224 75 2 2.6900000000000002e-01 1.4119999999999999e+00 1.5120000000000000e+00 8.8469999999999995e+00 0 0 0
225 75 1 1.2900000000000000e-01 2.7204999999999999e+00 1.5485000000000000e+00 8.7759990000000005e+00 0 0 0
226 76 4 -3.9800000000000002e-01 4.1520000000000001e+00 9.9700000000000000e-01 -9.4850010000000005e+00 0 0 0
227 76 2 2.6900000000000002e-01 1.6130000000000000e+00 1.4370000000000001e+00 -9.9640009999999997e+00 0 0 0
228 76 1 1.2900000000000000e-01 2.8824999999999998e+00 1.2170000000000001e+00 -9.7245010000000001e+00 0 0 0
229 77 4 -3.9800000000000002e-01 3.6610000000000000e+00 7.5449999999999999e+00 1.5655998000000000e+01 0 0 0
230 77 2 2.6900000000000002e-01 1.6160000000000001e+00 6.6500000000000004e+00 1.7030998000000000e+01 0 0 0
231 77 1 1.2900000000000000e-01 2.6385000000000001e+00 7.0975000000000001e+00 1.6343498000000000e+01 0 0 0
232 78 4 -3.9800000000000002e-01 1.1779999999999999e+00 7.5199999999999996e+00 2.4673999999999999e+01 0 0 0
233 78 2 2.6900000000000002e-01 3.6629999999999998e+00 6.8380000000000001e+00 2.5158999999999999e+01 0 0 0
234 78 1 1.2900000000000000e-01 2.4205000000000001e+00 7.1790000000000003e+00 2.4916499999999999e+01 0 0 0
235 79 4 -3.9800000000000002e-01 6.9580000000000002e+00 3.4070000000000000e+00 -2.2563002000000001e+01 0 0 0
236 79 2 2.6900000000000002e-01 6.0880000000000001e+00 1.6539999999999999e+00 -2.4308001000000001e+01 0 0 0
237 79 1 1.2900000000000000e-01 6.5229999999999997e+00 2.5305000000000000e+00 -2.3435502000000000e+01 0 0 0
238 80 4 -3.9800000000000002e-01 8.8399999999999999e+00 3.5630000000000002e+00 1.3758998999999999e+01 0 0 0
239 80 2 2.6900000000000002e-01 8.0259999999999998e+00 1.9330000000000001e+00 1.5644000999999999e+01 0 0 0
240 80 1 1.2900000000000000e-01 8.4329999999999998e+00 2.7480000000000002e+00 1.4701499999999999e+01 0 0 0
241 81 3 0.0000000000000000e+00 6.1499999999999999e-01 1.0649999999999999e+00 -3.8524999999999999e+01 0 0 0
242 81 3 0.0000000000000000e+00 6.1499999999999999e-01 3.9049999999999998e+00 -3.8524999999999999e+01 0 0 0
243 81 3 0.0000000000000000e+00 1.8450000000000000e+00 1.7749999999999999e+00 -3.8524999999999999e+01 0 0 0
244 81 3 0.0000000000000000e+00 1.8450000000000000e+00 3.1949999999999998e+00 -3.8524999999999999e+01 0 0 0
245 81 3 0.0000000000000000e+00 3.0739999999999998e+00 1.0649999999999999e+00 -3.8524999999999999e+01 0 0 0
246 81 3 0.0000000000000000e+00 3.0739999999999998e+00 3.9049999999999998e+00 -3.8524999999999999e+01 0 0 0
247 81 3 0.0000000000000000e+00 4.3040000000000003e+00 1.7749999999999999e+00 -3.8524999999999999e+01 0 0 0
248 81 3 0.0000000000000000e+00 4.3040000000000003e+00 3.1949999999999998e+00 -3.8524999999999999e+01 0 0 0
249 81 3 0.0000000000000000e+00 5.5339999999999998e+00 1.0649999999999999e+00 -3.8524999999999999e+01 0 0 0
250 81 3 0.0000000000000000e+00 5.5339999999999998e+00 3.9049999999999998e+00 -3.8524999999999999e+01 0 0 0
251 81 3 0.0000000000000000e+00 6.7640000000000002e+00 1.7749999999999999e+00 -3.8524999999999999e+01 0 0 0
252 81 3 0.0000000000000000e+00 6.7640000000000002e+00 3.1949999999999998e+00 -3.8524999999999999e+01 0 0 0
253 81 3 0.0000000000000000e+00 7.9930000000000003e+00 1.0649999999999999e+00 -3.8524999999999999e+01 0 0 0
254 81 3 0.0000000000000000e+00 7.9930000000000003e+00 3.9049999999999998e+00 -3.8524999999999999e+01 0 0 0
255 81 3 0.0000000000000000e+00 9.2230000000000008e+00 1.7749999999999999e+00 -3.8524999999999999e+01 0 0 0
256 81 3 0.0000000000000000e+00 9.2230000000000008e+00 3.1949999999999998e+00 -3.8524999999999999e+01 0 0 0
257 81 3 0.0000000000000000e+00 6.1499999999999999e-01 5.3250000000000002e+00 -3.8524999999999999e+01 0 0 0
258 81 3 0.0000000000000000e+00 6.1499999999999999e-01 8.1649999999999991e+00 -3.8524999999999999e+01 0 0 0
259 81 3 0.0000000000000000e+00 1.8450000000000000e+00 6.0350000000000001e+00 -3.8524999999999999e+01 0 0 0
260 81 3 0.0000000000000000e+00 1.8450000000000000e+00 7.4550000000000001e+00 -3.8524999999999999e+01 0 0 0
261 81 3 0.0000000000000000e+00 3.0739999999999998e+00 5.3250000000000002e+00 -3.8524999999999999e+01 0 0 0
262 81 3 0.0000000000000000e+00 3.0739999999999998e+00 8.1649999999999991e+00 -3.8524999999999999e+01 0 0 0
263 81 3 0.0000000000000000e+00 4.3040000000000003e+00 6.0350000000000001e+00 -3.8524999999999999e+01 0 0 0
264 81 3 0.0000000000000000e+00 4.3040000000000003e+00 7.4550000000000001e+00 -3.8524999999999999e+01 0 0 0
265 81 3 0.0000000000000000e+00 5.5339999999999998e+00 5.3250000000000002e+00 -3.8524999999999999e+01 0 0 0
266 81 3 0.0000000000000000e+00 5.5339999999999998e+00 8.1649999999999991e+00 -3.8524999999999999e+01 0 0 0
267 81 3 0.0000000000000000e+00 6.7640000000000002e+00 6.0350000000000001e+00 -3.8524999999999999e+01 0 0 0
268 81 3 0.0000000000000000e+00 6.7640000000000002e+00 7.4550000000000001e+00 -3.8524999999999999e+01 0 0 0
269 81 3 0.0000000000000000e+00 7.9930000000000003e+00 5.3250000000000002e+00 -3.8524999999999999e+01 0 0 0
270 81 3 0.0000000000000000e+00 7.9930000000000003e+00 8.1649999999999991e+00 -3.8524999999999999e+01 0 0 0
271 81 3 0.0000000000000000e+00 9.2230000000000008e+00 6.0350000000000001e+00 -3.8524999999999999e+01 0 0 0
272 81 3 0.0000000000000000e+00 9.2230000000000008e+00 7.4550000000000001e+00 -3.8524999999999999e+01 0 0 0
273 81 3 0.0000000000000000e+00 9.2230000000000008e+00 3.5499999999999998e-01 -3.5174999999999997e+01 0 0 0
274 81 3 0.0000000000000000e+00 9.2230000000000008e+00 3.1949999999999998e+00 -3.5174999999999997e+01 0 0 0