# DFF generated LAMMPS data file

1200 atoms
1150 bonds
1950 angles
2050 dihedrals
250 impropers

12  atom types
12  bond types
19  angle types
23  dihedral types
4  improper types

      0.0000     23.6034   xlo xhi
      0.0000     23.6034   ylo yhi
      0.0000     23.6034   zlo zhi

Masses

           1     14.0067   #   n_35+da
           2      1.0079   #   h_1imalpha
           3      1.0079   #   h_1im45
           4      1.0079   #   h_1im2
           5      1.0079   #   h_1
           6     18.9984   #   f_1b
           7     12.0110   #   c_4nh3
           8     12.0110   #   c_4nh2
           9     12.0110   #   c_4h3
          10     12.0110   #   c_35an2
          11     12.0110   #   c_35an
          12     10.8110   #   b_4-

Atoms

           1           1           9    -0.18000    -0.02798    19.70643     7.52422	      #     C1
           2           1           8    -0.06730     0.64055    19.35262     8.83076	      #     C2
           3           1           1     0.15990     1.85752    18.50303     8.73045	      #     N3
           4           1          11    -0.07920     2.87233    18.53071     7.76521	      #     C4
           5           1          11    -0.07920     3.71022    17.50577     8.05874	      #     C5
           6           1           1     0.15990     3.28177    16.89098     9.16673	      #     N6
           7           1          10    -0.01300     2.25027    17.58093     9.64401	      #     C7
           8           1           7    -0.12730     3.85927    15.65816     9.70333	      #     C8
           9           1           5     0.06000     0.60236    20.45536     7.02176	      #     H9
          10           1           5     0.06000    -1.01215    20.16028     7.78784	      #     H10
          11           1           5     0.06000    -0.21645    18.82691     6.91409	      #     H11
          12           1           2     0.06000     1.02494    20.24746     9.34915	      #     H12
          13           1           2     0.06000    -0.01163    18.75867     9.46451	      #     H13
          14           1           3     0.24760     2.92430    19.36448     7.05405	      #     H14
          15           1           3     0.24760     4.65866    17.21539     7.63251	      #     H15
          16           1           4     0.25100     1.69121    17.37241    10.54502	      #     H16
          17           1           2     0.06000     3.88429    14.89911     8.85610	      #     H17
          18           1           2     0.06000     4.79207    15.93094    10.22016	      #     H18
          19           1           2     0.06000     3.17210    15.31613    10.49257	      #     H19
          20           2           9    -0.18000     0.82175     9.20426    12.16852	      #     C20
          21           2           8    -0.06730     2.17475     9.92333    11.98196	      #     C21
          22           2           1     0.15990     2.64701     9.93631    10.56752	      #     N22
          23           2          11    -0.07920     3.43130    10.84978     9.92710	      #     C23
          24           2          11    -0.07920     3.61941    10.37530     8.64621	      #     C24
          25           2           1     0.15990     2.90214     9.23197     8.52012	      #     N25
          26           2          10    -0.01300     2.34080     8.99805     9.69727	      #     C26
          27           2           7    -0.12730     2.72295     8.34872     7.38886	      #     C27
          28           2           5     0.06000     0.23593     9.58563    11.38743	      #     H28
          29           2           5     0.06000     0.19965     9.45969    13.03941	      #     H29
          30           2           5     0.06000     0.89484     8.09470    12.08397	      #     H30
          31           2           2     0.06000     2.09363    10.99844    12.30229	      #     H31
          32           2           2     0.06000     3.03229     9.61942    12.58791	      #     H32
          33           2           3     0.24760     3.72624    11.78049    10.43449	      #     H33
          34           2           3     0.24760     4.12059    10.85290     7.84487	      #     H34
          35           2           4     0.25100     1.67984     8.21076     9.95713	      #     H35
          36           2           2     0.06000     3.26133     8.72416     6.56141	      #     H36
          37           2           2     0.06000     3.10831     7.31630     7.57387	      #     H37
          38           2           2     0.06000     1.64579     8.20497     7.22607	      #     H38
          39           3           9    -0.18000    23.88883    10.18073     4.36195	      #     C39
          40           3           8    -0.06730    24.44553    10.86770     3.11770	      #     C40
          41           3           1     0.15990    23.72448    12.12730     2.89834	      #     N41
          42           3          11    -0.07920    22.36687    12.23081     2.76915	      #     C42
          43           3          11    -0.07920    22.09027    13.54128     2.52848	      #     C43
          44           3           1     0.15990    23.31786    14.13925     2.43354	      #     N44
          45           3          10    -0.01300    24.25753    13.31501     2.85700	      #     C45
          46           3           7    -0.12730    23.60371    15.52153     1.99114	      #     C46
          47           3           5     0.06000    24.03154    10.71267     5.30957	      #     H47
          48           3           5     0.06000    24.33201     9.17258     4.51030	      #     H48
          49           3           5     0.06000    22.82045    10.07022     4.22865	      #     H49
          50           3           2     0.06000    25.49627    11.09777     3.20564	      #     H50
          51           3           2     0.06000    24.25183    10.33200     2.21601	      #     H51
          52           3           3     0.24760    21.68996    11.41052     2.93486	      #     H52
          53           3           3     0.24760    21.13837    14.05948     2.43088	      #     H53
          54           3           4     0.25100    25.31417    13.52237     2.98486	      #     H54
          55           3           2     0.06000    24.06940    16.04682     2.83025	      #     H55
          56           3           2     0.06000    24.31761    15.45876     1.14391	      #     H56
          57           3           2     0.06000    22.62213    15.95622     1.72459	      #     H57
          58           4           9    -0.18000    18.45359     2.57989    15.33929	      #     C58
          59           4           8    -0.06730    17.06681     1.82734    15.59264	      #     C59
          60           4           1     0.15990    16.69049     1.56881    17.00315	      #     N60
          61           4          11    -0.07920    17.55021     0.96587    17.96134	      #     C61
          62           4          11    -0.07920    16.95446     1.13593    19.12743	      #     C62
          63           4           1     0.15990    15.67597     1.68463    18.93324	      #     N63
          64           4          10    -0.01300    15.54633     1.97837    17.62847	      #     C64
          65           4           7    -0.12730    14.84932     2.16235    20.02655	      #     C65
          66           4           5     0.06000    18.60576     3.53004    15.86902	      #     H66
          67           4           5     0.06000    18.58526     2.83270    14.30123	      #     H67
          68           4           5     0.06000    19.28831     1.88048    15.61410	      #     H68
          69           4           2     0.06000    16.22801     2.48292    15.25509	      #     H69
          70           4           2     0.06000    17.07441     0.86406    15.12934	      #     H70
          71           4           3     0.24760    18.55739     0.67620    17.73382	      #     H71
          72           4           3     0.24760    17.40406     0.94171    20.06980	      #     H72
          73           4           4     0.25100    14.69500     2.45667    17.19338	      #     H73
          74           4           2     0.06000    13.85645     2.06435    19.78589	      #     H74
          75           4           2     0.06000    14.98598     1.54384    20.93666	      #     H75
          76           4           2     0.06000    15.11210     3.20767    20.18855	      #     H76
          77           5           9    -0.18000    13.54422    12.11212    15.03268	      #     C77
          78           5           8    -0.06730    14.17681    11.04833    14.16311	      #     C78
          79           5           1     0.15990    15.28555    10.53365    14.88680	      #     N79
          80           5          11    -0.07920    15.37053     9.39981    15.61404	      #     C80
          81           5          11    -0.07920    16.61753     9.38626    16.21459	      #     C81
          82           5           1     0.15990    17.23564    10.55277    15.79246	      #     N82
          83           5          10    -0.01300    16.39401    11.18521    15.00956	      #     C83
          84           5           7    -0.12730    18.59172    11.01990    16.04663	      #     C84
          85           5           5     0.06000    14.01923    12.12903    16.03318	      #     H85
          86           5           5     0.06000    12.49813    11.87544    15.22510	      #     H86
          87           5           5     0.06000    13.60250    13.17761    14.65051	      #     H87
          88           5           2     0.06000    13.57630    10.18025    13.92747	      #     H88
          89           5           2     0.06000    14.56766    11.46870    13.24938	      #     H89
          90           5           3     0.24760    14.51873     8.69591    15.66310	      #     H90
          91           5           3     0.24760    17.08692     8.69884    16.94731	      #     H91
          92           5           4     0.25100    16.54378    12.11824    14.53293	      #     H92
          93           5           2     0.06000    18.99115    10.43027    16.87466	      #     H93
          94           5           2     0.06000    19.24611    10.91499    15.18128	      #     H94
          95           5           2     0.06000    18.59435    12.02591    16.41680	      #     H95
          96           6           9    -0.18000     7.59886    11.74852    21.11166	      #     C96
          97           6           8    -0.06730     6.32904    12.62220    21.30714	      #     C97
          98           6           1     0.15990     5.11205    11.82674    21.59771	      #     N98
          99           6          11    -0.07920     4.22887    12.06961    22.60122	      #     C99
         100           6          11    -0.07920     3.40077    10.99468    22.73862	      #     C100
         101           6           1     0.15990     3.74346    10.13792    21.69326	      #     N101
         102           6          10    -0.01300     4.71673    10.70512    20.99312	      #     C102
         103           6           7    -0.12730     3.14651     8.85478    21.41943	      #     C103
         104           6           5     0.06000     7.83943    11.13936    21.99340	      #     H104
         105           6           5     0.06000     8.52448    12.39462    20.94431	      #     H105
         106           6           5     0.06000     7.39895    11.11873    20.24383	      #     H106
         107           6           2     0.06000     6.55968    13.22172    22.21779	      #     H107
         108           6           2     0.06000     6.08790    13.27849    20.44586	      #     H108
         109           6           3     0.24760     4.34283    12.92464    23.18539	      #     H109
         110           6           3     0.24760     2.62174    10.86500    23.47646	      #     H110
         111           6           4     0.25100     5.18647    10.36346    20.13759	      #     H111
         112           6           2     0.06000     2.10580     8.96105    21.69703	      #     H112
         113           6           2     0.06000     3.29151     8.61348    20.37597	      #     H113
         114           6           2     0.06000     3.63105     8.08401    22.04877	      #     H114
         115           7           9    -0.18000     9.23326    -0.18101     5.16265	      #     C115
         116           7           8    -0.06730     9.22988     1.24589     4.52413	      #     C116
         117           7           1     0.15990     9.37348     1.15880     3.07409	      #     N117
         118           7          11    -0.07920    10.49872     1.30203     2.30430	      #     C118
         119           7          11    -0.07920    10.27040     0.91719     1.01736	      #     C119
         120           7           1     0.15990     8.94895     0.55326     1.01712	      #     N120
         121           7          10    -0.01300     8.46154     0.67451     2.25918	      #     C121
         122           7           7    -0.12730     8.04982     0.32219    -0.13466	      #     C122
         123           7           5     0.06000     8.29828    -0.68159     4.99333	      #     H123
         124           7           5     0.06000     9.26375    -0.11739     6.25907	      #     H124
         125           7           5     0.06000    10.06865    -0.75292     4.78561	      #     H125
         126           7           2     0.06000     8.23434     1.69325     4.74594	      #     H126
         127           7           2     0.06000    10.10295     1.88125     4.80892	      #     H127
         128           7           3     0.24760    11.45868     1.50683     2.70444	      #     H128
         129           7           3     0.24760    10.86749     0.85943     0.13315	      #     H129
         130           7           4     0.25100     7.47516     0.39674     2.58063	      #     H130
         131           7           2     0.06000     8.51394    -0.45278    -0.80798	      #     H131
         132           7           2     0.06000     7.12810     0.01475     0.36724	      #     H132
         133           7           2     0.06000     7.91644     1.27595    -0.64023	      #     H133
         134           8           9    -0.18000    13.84869     6.89523    13.36919	      #     C134
         135           8           8    -0.06730    14.10723     7.27911    11.90352	      #     C135
         136           8           1     0.15990    15.27489     8.25877    11.72836	      #     N136
         137           8          11    -0.07920    15.38993     9.44774    10.95962	      #     C137
         138           8          11    -0.07920    16.61562     9.96997    11.24540	      #     C138
         139           8           1     0.15990    17.24486     9.16023    12.15141	      #     N139
         140           8          10    -0.01300    16.44391     8.13544    12.39508	      #     C140
         141           8           7    -0.12730    18.53686     9.34823    12.79860	      #     C141
         142           8           5     0.06000    14.69268     6.32798    13.70022	      #     H142
         143           8           5     0.06000    12.99731     6.19801    13.42943	      #     H143
         144           8           5     0.06000    13.71540     7.79555    14.02960	      #     H144
         145           8           2     0.06000    14.15935     6.37743    11.24883	      #     H145
         146           8           2     0.06000    13.29779     7.86849    11.53643	      #     H146
         147           8           3     0.24760    14.56544     9.76011    10.34981	      #     H147
         148           8           3     0.24760    17.15061    10.83446    10.89805	      #     H148
         149           8           4     0.25100    16.63242     7.33572    13.07160	      #     H149
         150           8           2     0.06000    19.11195     9.96761    12.07322	      #     H150
         151           8           2     0.06000    18.29586     9.86736    13.70305	      #     H151
         152           8           2     0.06000    19.06740     8.44363    12.97698	      #     H152
         153           9           9    -0.18000    20.05376     7.50571    10.45971	      #     C153
         154           9           8    -0.06730    18.97559     6.64991     9.72964	      #     C154
         155           9           1     0.15990    19.48698     6.53132     8.33803	      #     N155
         156           9          11    -0.07920    20.57555     5.83538     8.03609	      #     C156
         157           9          11    -0.07920    21.12565     6.45631     6.97560	      #     C157
         158           9           1     0.15990    20.09633     7.20398     6.40571	      #     N158
         159           9          10    -0.01300    19.13638     7.27765     7.30353	      #     C159
         160           9           7    -0.12730    20.16875     8.07825     5.27744	      #     C160
         161           9           5     0.06000    21.06648     7.08320    10.23664	      #     H161
         162           9           5     0.06000    20.02568     7.41111    11.54375	      #     H162
         163           9           5     0.06000    19.96266     8.57335    10.18124	      #     H163
         164           9           2     0.06000    18.75428     5.68434    10.15902	      #     H164
         165           9           2     0.06000    17.98286     7.13633     9.67217	      #     H165
         166           9           3     0.24760    20.99368     5.09445     8.73225	      #     H166
         167           9           3     0.24760    22.12880     6.38849     6.62502	      #     H167
         168           9           4     0.25100    18.27084     7.89412     7.16862	      #     H168
         169           9           2     0.06000    19.20358     8.64265     5.16906	      #     H169
         170           9           2     0.06000    20.94496     8.73887     5.53711	      #     H170
         171           9           2     0.06000    20.52863     7.40650     4.43993	      #     H171
         172          10           9    -0.18000    10.65856    10.40534    13.06149	      #     C172
         173          10           8    -0.06730     9.86382    11.62500    13.54322	      #     C173
         174          10           1     0.15990     9.43495    11.44971    14.96305	      #     N174
         175          10          11    -0.07920     8.56369    12.24223    15.61599	      #     C175
         176          10          11    -0.07920     8.38616    11.79866    16.90011	      #     C176
         177          10           1     0.15990     9.19013    10.71051    17.06993	      #     N177
         178          10          10    -0.01300     9.75173    10.47938    15.88634	      #     C178
         179          10           7    -0.12730     9.43898     9.93873    18.33174	      #     C179
         180          10           5     0.06000    11.49008    10.12552    13.73004	      #     H180
         181          10           5     0.06000    11.28645    10.70609    12.19154	      #     H181
         182          10           5     0.06000     9.93978     9.57059    12.80739	      #     H182
         183          10           2     0.06000    10.51750    12.51319    13.47747	      #     H183
         184          10           2     0.06000     9.01900    11.81423    12.89777	      #     H184
         185          10           3     0.24760     8.08332    13.07112    15.08118	      #     H185
         186          10           3     0.24760     7.72774    12.07576    17.70871	      #     H186
         187          10           4     0.25100    10.50714     9.74481    15.76269	      #     H187
         188          10           2     0.06000    10.31106     9.34685    18.12217	      #     H188
         189          10           2     0.06000     9.65668    10.68249    19.05421	      #     H189
         190          10           2     0.06000     8.59290     9.30215    18.60024	      #     H190
         191          11           9    -0.18000    18.85273    17.96927    21.10887	      #     C191
         192          11           8    -0.06730    17.49176    17.71494    20.31316	      #     C192
         193          11           1     0.15990    16.64269    18.93696    20.31427	      #     N193
         194          11          11    -0.07920    15.29335    18.91029    20.06929	      #     C194
         195          11          11    -0.07920    14.88452    20.18860    20.23435	      #     C195
         196          11           1     0.15990    15.94544    20.92853    20.65236	      #     N196
         197          11          10    -0.01300    17.02804    20.20237    20.52708	      #     C197
         198          11           7    -0.12730    15.91944    22.30730    21.14124	      #     C198
         199          11           5     0.06000    19.58356    18.61327    20.57375	      #     H199
         200          11           5     0.06000    19.32851    17.02084    21.30833	      #     H200
         201          11           5     0.06000    18.69430    18.48389    22.04830	      #     H201
         202          11           2     0.06000    17.67304    17.49989    19.24912	      #     H202
         203          11           2     0.06000    16.85799    16.94637    20.71632	      #     H203
         204          11           3     0.24760    14.65002    18.06477    19.86842	      #     H204
         205          11           3     0.24760    13.84534    20.42606    20.11643	      #     H205
         206          11           4     0.25100    17.99494    20.59093    20.69192	      #     H206
         207          11           2     0.06000    16.95099    22.59679    21.40308	      #     H207
         208          11           2     0.06000    15.49370    22.84673    20.28784	      #     H208
         209          11           2     0.06000    15.29302    22.31303    21.99610	      #     H209
         210          12           9    -0.18000    11.94641    12.13800    21.52828	      #     C210
         211          12           8    -0.06730    11.76047    13.59391    21.13122	      #     C211
         212          12           1     0.15990    12.76575    14.01680    20.10447	      #     N212
         213          12          11    -0.07920    12.82418    15.28915    19.45369	      #     C213
         214          12          11    -0.07920    14.01709    15.28120    18.70240	      #     C214
         215          12           1     0.15990    14.52069    14.01570    18.78825	      #     N215
         216          12          10    -0.01300    13.80292    13.33071    19.65345	      #     C216
         217          12           7    -0.12730    15.57847    13.42606    17.91640	      #     C217
         218          12           5     0.06000    12.92353    11.83254    21.92935	      #     H218
         219          12           5     0.06000    11.72164    11.48801    20.67619	      #     H219
         220          12           5     0.06000    11.17648    11.97999    22.31288	      #     H220
         221          12           2     0.06000    10.83216    13.81075    20.57415	      #     H221
         222          12           2     0.06000    11.83518    14.22655    22.05159	      #     H222
         223          12           3     0.24760    12.15677    16.11895    19.60372	      #     H223
         224          12           3     0.24760    14.51909    16.04487    18.12813	      #     H224
         225          12           4     0.25100    14.03732    12.30978    19.78928	      #     H225
         226          12           2     0.06000    15.37672    12.33941    17.91977	      #     H226
         227          12           2     0.06000    15.39695    13.78973    16.89136	      #     H227
         228          12           2     0.06000    16.56197    13.67720    18.32648	      #     H228
         229          13           9    -0.18000    21.46388    10.38973    19.83866	      #     C229
         230          13           8    -0.06730    20.01201    10.61951    20.30788	      #     C230
         231          13           1     0.15990    19.89334    11.94636    20.90876	      #     N231
         232          13          11    -0.07920    18.88586    12.85476    20.79425	      #     C232
         233          13          11    -0.07920    19.37150    13.99987    21.41218	      #     C233
         234          13           1     0.15990    20.58458    13.74203    22.00267	      #     N234
         235          13          10    -0.01300    20.88345    12.56705    21.57798	      #     C235
         236          13           7    -0.12730    21.38121    14.50582    22.92874	      #     C236
         237          13           5     0.06000    21.78727    11.09799    19.07701	      #     H237
         238          13           5     0.06000    21.54665     9.42994    19.31838	      #     H238
         239          13           5     0.06000    22.14087    10.36527    20.71801	      #     H239
         240          13           2     0.06000    19.27580    10.55992    19.52371	      #     H240
         241          13           2     0.06000    19.76772     9.85258    21.04711	      #     H241
         242          13           3     0.24760    17.98252    12.67545    20.24083	      #     H242
         243          13           3     0.24760    18.82496    14.95401    21.52949	      #     H243
         244          13           4     0.25100    21.77856    12.10886    21.87990	      #     H244
         245          13           2     0.06000    21.90167    13.90538    23.66674	      #     H245
         246          13           2     0.06000    21.99757    15.14421    22.28839	      #     H246
         247          13           2     0.06000    20.64687    15.13111    23.42935	      #     H247
         248          14           9    -0.18000    19.27928     2.26561     8.46928	      #     C248
         249          14           8    -0.06730    19.02867     1.51572     7.11446	      #     C249
         250          14           1     0.15990    18.73265     2.46770     5.98926	      #     N250
         251          14          11    -0.07920    18.26591     3.79696     6.05426	      #     C251
         252          14          11    -0.07920    18.29176     4.33931     4.79365	      #     C252
         253          14           1     0.15990    18.67370     3.30484     3.95306	      #     N253
         254          14          10    -0.01300    18.98149     2.20454     4.67878	      #     C254
         255          14           7    -0.12730    18.87980     3.52689     2.55309	      #     C255
         256          14           5     0.06000    20.19443     2.88557     8.41062	      #     H256
         257          14           5     0.06000    19.54242     1.47876     9.26406	      #     H257
         258          14           5     0.06000    18.37588     2.84287     8.90662	      #     H258
         259          14           2     0.06000    19.87976     0.97845     6.73096	      #     H259
         260          14           2     0.06000    18.21520     0.80571     7.23739	      #     H260
         261          14           3     0.24760    17.99297     4.28969     6.96589	      #     H261
         262          14           3     0.24760    18.14679     5.28399     4.34778	      #     H262
         263          14           4     0.25100    19.33390     1.30511     4.28065	      #     H263
         264          14           2     0.06000    18.21707     4.39568     2.26715	      #     H264
         265          14           2     0.06000    19.92387     3.72626     2.42517	      #     H265
         266          14           2     0.06000    18.61783     2.56995     2.04948	      #     H266
         267          15           9    -0.18000     6.09286    21.30892     7.50461	      #     C267
         268          15           8    -0.06730     7.00278    20.09382     7.55201	      #     C268
         269          15           1     0.15990     7.45897    19.86452     8.94631	      #     N269
         270          15          11    -0.07920     7.99700    18.66653     9.38209	      #     C270
         271          15          11    -0.07920     8.39522    18.76027    10.66092	      #     C271
         272          15           1     0.15990     7.95340    19.95819    11.07220	      #     N272
         273          15          10    -0.01300     7.51519    20.63922    10.01864	      #     C273
         274          15           7    -0.12730     7.86987    20.38681    12.44887	      #     C274
         275          15           5     0.06000     5.50069    21.46921     8.41592	      #     H275
         276          15           5     0.06000     5.43827    21.38602     6.61673	      #     H276
         277          15           5     0.06000     6.70757    22.21535     7.32328	      #     H277
         278          15           2     0.06000     6.44950    19.16969     7.26484	      #     H278
         279          15           2     0.06000     7.90725    20.19363     6.95694	      #     H279
         280          15           3     0.24760     8.13903    17.83141     8.72692	      #     H280
         281          15           3     0.24760     8.91520    18.01334    11.23569	      #     H281
         282          15           4     0.25100     7.03566    21.59658    10.10022	      #     H282
         283          15           2     0.06000     7.71855    21.47135    12.41431	      #     H283
         284          15           2     0.06000     6.97331    19.89525    12.84698	      #     H284
         285          15           2     0.06000     8.76715    20.10413    13.00793	      #     H285
         286          16           9    -0.18000     4.25774    14.70145    12.88847	      #     C286
         287          16           8    -0.06730     5.15118    13.81021    11.97064	      #     C287